# Position data file
 
128 atoms
5 atom types
 
    0.000000000    12.219990730 xlo xhi
    0.000000000    14.620910650 ylo yhi
    0.000000000    13.745848170 zlo zhi
    0.000000000    -2.565747966     0.000000000 xy xz yz
 
Masses
 
1    26.982000000
2    12.011000000
3     1.008000000
4    14.007000000
5    15.999000000
 
Atoms
 
1 1 0     7.890724588     8.110979747     6.112163324
2 1 0     3.046301371     0.800407834     0.760817755
3 1 0     1.763429474     6.510199549     7.633707733
4 1 0     6.607982979    13.820323060    12.985125840
5 1 0    -1.282939979     7.310205716     6.872282490
6 1 0    -0.000042259     0.000410643    -0.000869355
7 1 0     4.827043843     7.310491504     6.872866024
8 1 0     6.109924192    -0.000086082    -0.000080712
9 3 0     6.624770323     8.146504235     7.996644929
10 3 0     1.745814730     0.836155300    12.622538320
11 3 0     3.028859483     6.474307691     5.749628784
12 3 0     7.907321561    13.784443780     1.123535930
13 3 0     8.874953322     6.619723920     7.566976682
14 3 0    -0.503348064    13.927831390    13.052852710
15 3 0     0.779328840     8.003205993     6.179657935
16 3 0    10.158259930     0.690512235     0.694609104
17 3 0     2.624832671    12.437382600     3.671599469
18 3 0     8.312794575     5.127225384     3.200305512
19 3 0     7.029765863     2.183038427    10.073299490
20 3 0     1.341796358     9.494173125    10.544918630
21 3 0     8.840170790     3.496937028    11.516447100
22 3 0    -0.467365451    10.807954180     9.102697869
23 3 0     0.814425388    11.124594830     2.230457002
24 3 0    10.122509250     3.813386145     4.643974724
25 3 0     6.537325016    11.602187660     3.453988552
26 3 0     4.399481748     4.292162443     3.418041847
27 3 0     3.116407020     3.018169422    10.290748820
28 3 0     5.254593371    10.328834510    10.327281000
29 3 0     0.544206035     3.963305747    10.992360710
30 3 0     7.827659060    11.272642900     9.626314555
31 3 0     9.109961425    10.657539320     2.753208776
32 3 0     1.826662347     3.348015312     4.119073220
33 2 0    -0.660478499     5.941674756     9.200152791
34 2 0     9.031790349    13.251978810    11.418280030
35 2 0    10.314555720     8.679258037     4.545431843
36 2 0     0.622467625     1.368781588     2.327374799
37 2 0     5.486860774     9.735789191     5.506516097
38 2 0     5.450472560     2.425057582     1.367157420
39 2 0     4.167575035     4.885398782     8.240007199
40 2 0     4.204079898    12.195643730    12.379371190
41 2 0    -1.203645657     2.432522141    12.843467130
42 2 0     9.575286895     9.742610220     7.775026989
43 2 0    10.857933850    12.188463170     0.901876228
44 2 0     0.079129043     4.878311945     5.970419447
45 2 0     4.923677256    10.919841000     4.838056047
46 2 0     6.013520402     3.609302738     2.035265677
47 2 0     4.730465371     3.701073820     8.908153389
48 2 0     3.640997850    11.011465390    11.711060930
49 2 0     4.665782771    13.670568120     2.346773483
50 2 0     6.271394217     6.360356665     4.525949986
51 2 0     4.988465054     0.950205269    11.399076720
52 2 0     3.382787636     8.260669282     9.219839963
53 2 0    -1.217543215     5.140081690    10.297739050
54 2 0     9.589097336    12.449832740    10.321180700
55 2 0    10.871828270     9.481347458     3.448274975
56 2 0     0.065201040     2.170502662     3.424816154
57 2 0    -1.388470554     3.554586667    11.922921610
58 2 0     9.760595305    10.864233610     8.696043274
59 2 0    11.042967540    11.066862110     1.823005775
60 2 0    -0.105890021     3.756223829     5.049894536
61 2 0     4.635319418    12.678070430     3.420395061
62 2 0     6.301849927     5.367954434     3.452260007
63 2 0     5.018853230     1.942411955    10.325192580
64 2 0     3.352386436     9.253129656    10.293540380
65 2 0     5.537418424    11.738130210     3.837545129
66 2 0     5.399612082     4.428122622     3.035115693
67 2 0     4.116604753     2.882239270     9.908018642
68 2 0     4.254639695    10.192937080    10.710708540
69 2 0    -0.509996100     4.176727781    11.082984690
70 2 0     8.881952330    11.485952350     9.536145081
71 2 0    10.164394950    10.444841760     2.663006540
72 2 0     0.772552439     3.134226735     4.209820965
73 4 0     3.668630025    11.264784020     5.111432928
74 4 0     7.268564717     3.954088824     1.761787557
75 4 0     5.985484925     3.356228002     8.634640211
76 4 0     2.385905106    10.666726840    11.984464720
77 4 0     3.472074433    12.625918010     4.261634034
78 4 0     7.465059427     5.315426871     2.610887439
79 4 0     6.182032886     1.994978440     9.483834805
80 4 0     2.189144769     9.305623433    11.134795060
81 4 0     9.548068047     4.199764200    11.844255490
82 4 0    -1.176059373    11.509914240     8.774646679
83 4 0     0.106629969    10.421878860     1.902105419
84 4 0    10.830789830     3.110765644     4.971420886
85 4 0     9.701782721     5.200175947    10.562640010
86 4 0    -1.330265488    12.510313060    10.056286810
87 4 0    -0.047405373     9.421550712     3.183860176
88 4 0    10.984561530     2.110171784     3.689871422
89 5 0     6.753400705     9.475689384     5.354152450
90 5 0     4.183531182     2.166061488     1.518075759
91 5 0     2.900720382     5.144687681     8.391085463
92 5 0     5.470587215    12.455873050    12.227025060
93 5 0     6.597691367     7.556374893     7.202176409
94 5 0     1.773447457     0.245857933    13.416838540
95 5 0     3.056333850     7.064437522     6.544048519
96 5 0     7.880461065    14.374909760     0.329306918
97 5 0     0.565497097     5.691875105     8.841254371
98 5 0     7.806003669    13.001813910    11.777406240
99 5 0     9.088760416     8.929425953     4.904556869
100 5 0     1.848428868     1.618768359     1.968527230
101 5 0     9.173539990     7.021829498     6.714141511
102 5 0     1.763290422    14.332182910     0.158608283
103 5 0     0.480438841     7.599321923     7.031560176
104 5 0     7.890698046     0.288565503    13.587390250
105 5 0     0.022376042     2.077331364    13.142816250
106 5 0     8.349048706     9.387459097     7.476263119
107 5 0     9.631745545    12.543849220     0.603206987
108 5 0     1.305201498     5.233317657     6.269782309
109 5 0    -2.285797932     1.842708113    13.279173040
110 5 0    10.657121600     9.152999341     7.338457057
111 5 0    11.939693620    12.777866590     0.464801669
112 5 0    -1.002896883     5.468259841     6.406187912
113 5 0     3.522521086    14.255633610     2.089568390
114 5 0     7.414855493     6.944910199     4.783250914
115 5 0     6.131941585     0.365748525    11.656559510
116 5 0     2.239437460     7.675934697     8.962347404
117 5 0     4.647780512     9.013900593     6.206941520
118 5 0     6.289746059     1.702821928     0.667332005
119 5 0     5.006893864     5.607399492     7.539945735
120 5 0     3.364874647    12.917504580    13.079655670
121 5 0     5.792510325    13.887347090     1.718447235
122 5 0     5.144626943     6.577551216     5.154238200
123 5 0     3.861659105     0.733267988    12.027366850
124 5 0     4.509536829     8.043588168     8.591620666
125 5 0    -1.444022471     6.831124234     8.635897341
126 5 0     9.814565835    14.142549180    11.981927920
127 5 0    11.097544490     7.789000968     5.109229827
128 5 0    -0.160834488     0.479181424     1.762980382
