# Position data file
 
128 atoms
5 atom types
 
    0.000000000    11.897069930 xlo xhi
    0.000000000    15.009448050 ylo yhi
    0.000000000    13.739188350 zlo zhi
    0.000000000    -2.816105321     0.000000000 xy xz yz
 
Masses
 
1    26.982000000
2    12.011000000
3     1.008000000
4    14.007000000
5    15.999000000
 
Atoms
 
1 1 0     4.540482111     7.504724606     6.869594454
2 1 0     5.948534834     0.000000286     0.000000380
3 1 0     7.541156302     6.534350092     6.079817836
4 1 0     1.539807947     8.475098018     7.659371601
5 1 0     2.947860630    14.039074260     0.789776915
6 1 0     6.133103713     0.970374173    12.949411360
7 1 0    -1.408052532     7.504724508     6.869593930
8 1 0    -0.000000100    -0.000000009    -0.000000022
9 5 0     6.376036752     5.193393932     5.324194373
10 5 0     2.704927647     9.816054536     8.414993848
11 5 0     4.112980338    12.698117940     1.545399560
12 5 0     4.967984125     2.311330430    12.193788410
13 5 0     6.224814542     7.010772559     7.192301251
14 5 0     2.856149578     7.998676087     6.546887343
15 5 0     1.448097100    14.515496460    13.416481380
16 5 0     7.632867418     0.493951863     0.322706815
17 5 0     8.738650482     5.734769519     4.896181097
18 5 0     0.342313671     9.274679433     8.843007758
19 5 0     1.750366287    13.239493330     1.973413462
20 5 0     7.330597827     1.769955182    11.765775040
21 5 0     8.721499010     7.679982095     6.695819263
22 5 0     0.359465826     7.329466427     7.043368414
23 5 0     1.767518309     0.175257992     0.173774260
24 5 0     7.313446245    14.834190370    13.565413480
25 5 0     3.436210466     0.236860736     2.096483342
26 5 0     5.644753886    14.772588420    11.642704840
27 5 0     7.052806408     7.741584201     4.773110969
28 5 0     2.028157732     7.267863897     8.966077748
29 5 0     9.454140990     2.235186499     0.580675832
30 5 0    -0.373176719    12.774262250    13.158512960
31 5 0     1.034876132     9.739910223     6.288918869
32 5 0     8.046088617     5.269537934     7.450270257
33 5 0     4.267768702     6.130241900     5.604626911
34 5 0     4.813196229     8.879207138     8.134561805
35 5 0     6.221248898    13.634965390     1.264967402
36 5 0     2.859715969     1.374482684    12.474220970
37 5 0     5.410074586     1.207641545     1.364013785
38 5 0     3.670889739    13.801806520    12.375173670
39 5 0     5.078942379     8.712366104     5.505579758
40 5 0     4.002021886     6.297082984     8.233608185
41 5 0    11.733474210     1.797958808     0.584186106
42 5 0    -2.652509980    13.211489610    13.155002350
43 5 0    -1.244457023     9.302682833     6.285408110
44 5 0    10.325421980     5.706765476     7.453780284
45 5 0    10.718479460     6.910115897     5.145028252
46 5 0    -1.637514438     8.099331908     8.594160022
47 5 0    -0.229462103    14.414840440     1.724565878
48 5 0     9.310426432     0.594608330    12.014622550
49 3 0     6.167026728     6.292306984     7.870468832
50 3 0     2.913937683     8.717140887     5.868718878
51 3 0     1.505884726    13.797031650    12.738312900
52 3 0     7.575079213     1.212417393     1.000874423
53 3 0     8.391897859     8.071160631     7.541375873
54 3 0     0.689066849     6.938287102     6.197812039
55 3 0    -0.718985959     0.566437138    13.067406170
56 3 0     9.799950397    14.443011680     0.671781671
57 3 0     0.963630941     3.300134226     2.635337817
58 3 0     8.117332902    11.709314300    11.103850100
59 3 0     9.525385850    10.804858280     4.234256116
60 3 0    -0.444421369     4.204590522     9.504932414
61 3 0     2.554166748     4.737542447     3.938107316
62 3 0     6.526798082    10.271906100     9.801080774
63 3 0     7.934850723    12.242266430     2.931486540
64 3 0     1.146113987     2.767182224    10.807701670
65 3 0     6.147598309     3.049419696     3.435821783
66 3 0     2.933366073    11.960027620    10.303366590
67 3 0     4.341418758    10.554144830     3.433772344
68 3 0     4.739545622     4.455304716    10.305415830
69 3 0     8.883813890     4.073352263     2.664040709
70 3 0     0.197150462    10.936096110    11.075148390
71 3 0     1.605203366    11.578076350     4.205553932
72 3 0     7.475761552     3.431372070     9.533634435
73 4 0     0.291957240     4.036479650     2.252924819
74 4 0     8.789007236    10.972969350    11.486262890
75 4 0    10.197060060    11.541203310     4.616669016
76 4 0    -1.116095079     3.468245050     9.122519463
77 4 0     3.069122058     3.925095007     4.361925254
78 4 0     6.011842344    11.084353350     9.377262938
79 4 0     7.419894977    11.429819200     2.507668753
80 4 0     1.661069384     3.579629656    11.231519570
81 4 0     2.836734948     2.727381914     3.270076478
82 4 0     6.244229936    12.282066720    10.469111470
83 4 0     7.652282573    10.232106150     3.599517470
84 4 0     1.428682207     4.777343036    10.139671030
85 4 0     0.055608342     5.052004691     3.504996024
86 4 0     9.025355627     9.957444648    10.234192230
87 4 0    10.433408520    12.556728150     3.364598156
88 4 0    -1.352443981     2.452720218    10.374590490
89 2 0     5.085827828     5.222178401     5.132111438
90 2 0     3.995136511     9.787270219     8.607077134
91 2 0     5.403189234    12.726902290     1.737482766
92 2 0     3.677775222     2.282546042    12.001705430
93 2 0     9.988487725     5.967476519     4.600882819
94 2 0    -0.907523810     9.041972330     9.138305149
95 2 0     0.500528886    13.472200380     2.268711131
96 2 0     8.580435204     1.537248168    11.470477240
97 2 0     4.312192999     1.202573885     2.080917421
98 2 0     4.768771777    13.806874810    11.658270750
99 2 0     6.176824443     8.707297898     4.788676804
100 2 0     2.904140328     6.302150769     8.950511796
101 2 0     5.084002815     3.184267387     3.562237786
102 2 0     3.996961788    11.825181720    10.176950110
103 2 0     5.405014461    10.688991110     3.307356200
104 2 0     3.675950121     4.320457394    10.431832200
105 2 0    10.680042360     2.452653267     0.995317145
106 2 0    -1.599078002    12.556795120    12.743871650
107 2 0    -0.191025026     9.957377256     5.874277256
108 2 0     9.271990124     5.052070967     7.864911173
109 2 0     9.954691114     4.192533414     2.726842969
110 2 0    -0.873726769    10.816914730    11.012345630
111 2 0     0.534326134    11.697257650     4.142751306
112 2 0     8.546638785     3.312190828     9.596436997
113 2 0     4.488162566     4.159863450     4.313145339
114 2 0     4.592801805    10.849585260     9.426043002
115 2 0     6.000854485    11.664587420     2.556448890
116 2 0     3.080109926     3.344861194    11.182739600
117 2 0    10.883279270     3.499444128     1.998489505
118 2 0    -1.802314746    11.510004360    11.740699050
119 2 0    -0.394261884    11.004168100     4.871104758
120 2 0     9.475226916     4.005280157     8.868083583
121 2 0    10.623914590     5.098407322     3.600335712
122 2 0    -1.542950608     9.911041459    10.138852380
123 2 0    -0.134897747    12.603131190     3.269258356
124 2 0     9.215862231     2.406317304    10.469930140
125 2 0     4.080198353     2.355660318     2.971890804
126 2 0     5.000766588    12.653788780    10.767296880
127 2 0     6.408819258     9.860384062     3.897703014
128 2 0     2.672145637     5.149064537     9.841485349
