# Position data file
 
140 atoms
5 atom types
 
    0.000000000    12.253082275 xlo xhi
    0.000000000    15.893108368 ylo yhi
    0.000000000    12.493541896 zlo zhi
    0.000000000    -2.875699428     0.000000000 xy xz yz
 
Masses
 
1    26.982000000
2    12.011000000
3     1.008000000
4    14.007000000
5    15.999000000
 
Atoms
 
1 1 0     4.688691424     7.946554184     6.246770948
2 1 0     6.126541138     0.000000000     0.000000000
3 1 0    -1.437849714     7.946554184     6.246770948
4 1 0     0.000000000     0.000000000     0.000000000
5 1 0     7.784716863     7.051518084     5.317351492
6 1 0     1.592665898     8.841590761     7.176190779
7 1 0     3.030515679    14.998071791     0.929419544
8 1 0     6.346867235     0.895036275    11.564122065
9 5 0     6.487853761     7.568044090     6.621939505
10 5 0     2.889529086     8.325064278     5.871602391
11 5 0     1.451679372    15.514598274    12.118373339
12 5 0     7.925703470     0.378510285     0.375168582
13 5 0     4.191143701    13.671601180     1.652158424
14 5 0     5.186239189     2.221506949    10.841383285
15 5 0     6.624088903     5.725047473     4.594612337
16 5 0     2.753293944    10.168061371     7.898929559
17 5 0     9.032013610     8.220154267     5.973324746
18 5 0     0.345369421     7.672954101     6.520217149
19 5 0     1.783219144     0.273599861     0.273446164
20 5 0     7.594163896    15.619508285    12.220095694
21 5 0     7.569514526     1.559431729    10.266505310
22 5 0     1.807868732    14.333676988     2.227036398
23 5 0     0.370018975     9.505985564     8.473807533
24 5 0     9.007364153     6.387122327     4.019734737
25 5 0     6.298947583    14.353924649     1.153391257
26 5 0     3.078434940     1.539183957    11.340150452
27 5 0     4.516284654     6.407369988     5.093379504
28 5 0     4.861097825     9.485737903     7.400162392
29 5 0     5.153640084     9.087297501     4.797245343
30 5 0     4.223743131     6.805810390     7.696296553
31 5 0     5.661592825     1.140743794     1.449525693
32 5 0     3.715790370    14.752365051    11.044016290
33 5 0     7.182943954     8.369962659     4.106814587
34 5 0     2.194439344     7.523145709     8.386726947
35 5 0     3.632288975     0.423408300     2.139956361
36 5 0     5.745094156    15.469699893    10.353585897
37 5 0     8.329002199     5.663938376     6.569553984
38 5 0     1.048380280    10.229169992     5.923987912
39 5 0    -0.389469434    13.610492560    12.170758860
40 5 0     9.766851888     2.282615808     0.322783148
41 5 0     9.626418845     0.710914615    10.718122013
42 5 0    -0.249036101    15.182193404     1.775419696
43 5 0    -1.686885859     8.657469148     8.022190831
44 5 0    11.064268559     7.235639697     4.471351065
45 5 0    10.531157602     6.140763382     6.880355976
46 5 0    -1.153775086     9.752344986     5.613185920
47 5 0    -2.591624800    14.087317566    11.859956868
48 5 0    11.969007328     1.805790802     0.633584978
49 5 0     7.752244885    10.183970373     7.380647480
50 5 0     1.625138330     5.709138456     5.112894416
51 5 0     0.187288616     2.237415966    11.359665364
52 5 0     9.190094642    13.655692179     1.133876344
53 3 0     6.542997416     6.967745224     7.381884390
54 3 0     2.834385345     8.925362668     5.111657880
55 3 0     1.396535717    14.914299884    11.358428453
56 3 0     7.980847173     0.978808833     1.135113255
57 3 0     8.673960686     9.043115280     6.379202130
58 3 0     0.703434488     6.849993088     6.114339391
59 3 0    -0.734415312     1.096560857    12.361110714
60 3 0    10.111810317    14.796547272     0.132431544
61 3 0     4.286144100    11.274730198     3.235427508
62 3 0     5.091238379     4.618378170     9.258114388
63 3 0     6.529088093     3.328175776     3.011343440
64 3 0     2.848294386    12.564932354     9.482198456
65 3 0     8.043062133    12.492745967     1.688664528
66 3 0     1.334320757     3.400362401    10.804877180
67 3 0     2.772170471     4.546191783     4.558106232
68 3 0     6.605212376    11.346916585     7.935435664
69 3 0    -0.569002877     4.467886295     8.469472037
70 3 0     9.946385540    11.425221596     4.024069859
71 3 0     8.508535826    12.414440956    10.270840807
72 3 0     0.868846837     3.478667651     2.222701089
73 3 0     7.633325837     3.325934927     8.107034412
74 3 0     1.744057182    12.567173679     4.386507484
75 3 0     0.306207468    11.272488872    10.633278432
76 3 0     9.071175551     4.620619496     1.860263464
77 3 0     8.363315565    10.232650392     8.168889950
78 3 0     1.014067098     5.660457499     4.324651946
79 3 0    -0.423782616     2.286096446    10.571422894
80 3 0     9.801165279    13.607012160     1.922119002
81 3 0     7.144665951     9.425551003     7.510155073
82 3 0     2.232717350     6.467557365     4.983386448
83 3 0     0.794867549     1.478996819    11.230157771
84 3 0     8.582515599    14.414111549     1.263384412
85 2 0     5.447593135    13.535095749     1.631956367
86 2 0     3.929802124     2.358012857    10.861585529
87 2 0     5.367651838     5.588541565     4.614814581
88 2 0     4.009743421    10.304566802     7.878727315
89 2 0     6.232730540     9.200393178     4.120969695
90 2 0     3.144652307     6.692715190     8.372572201
91 2 0     4.582502064     1.253839105     2.125801066
92 2 0     4.794880826    14.639269374    10.367740643
93 2 0     8.826481126     1.489724683    10.121030446
94 2 0     0.550901534    14.403383335     2.372511087
95 2 0    -0.886948263     9.436279217     8.619282398
96 2 0    10.264330757     6.456829628     3.874259860
97 2 0     9.481344046     5.453815654     7.054565549
98 2 0    -0.103961113    10.439293191     5.438975972
99 2 0    -1.541810913    13.400369361    11.685747295
100 2 0    10.919193674     2.492738768     0.807794976
101 2 0     5.335620753    11.320899853     2.975911705
102 2 0     4.041762138     4.572208992     9.517630003
103 2 0     5.479611768     3.374345192     3.270859417
104 2 0     3.897770995    12.518762699     9.222682841
105 2 0     5.971543278    12.306431344     2.235856676
106 2 0     3.405839526     3.586677263    10.257685407
107 2 0     4.843689326     4.359877160     4.010914084
108 2 0     4.533693607    11.533231208     8.482627437
109 2 0     8.684441785     3.363013549     8.359691584
110 2 0     0.692940792    12.530095280     4.133850686
111 2 0    -0.744908836    11.309567272    10.380621260
112 2 0    10.122291586     4.583540635     2.112920261
113 2 0     9.394653757     2.511222310     9.219584255
114 2 0    -0.017270591    13.381885581     3.273957641
115 2 0    -1.455120305    10.457776971     9.520728589
116 2 0    10.832503471     5.435331874     2.972813307
117 2 0     6.358887598    10.415326415     3.304367109
118 2 0     3.018495616     5.477782414     9.189174787
119 2 0     4.456345287     2.468771770     2.942404026
120 2 0     4.921037884    13.424336137     9.551138057
121 2 0     9.623375236     4.280872089     7.922517079
122 2 0    -0.245992487    11.612236279     4.571024817
123 2 0    -1.683842201    12.227426273    10.817795765
124 2 0    11.061224907     3.665681857     1.675746318
125 4 0     7.287371659    11.950917973     2.166517556
126 4 0     2.090011231     3.942190156    10.327024152
127 4 0     3.527860945     4.004363789     4.080253204
128 4 0     5.849521902    11.888744578     8.413288692
129 4 0     7.555878687    10.815435037     2.802213917
130 4 0     1.821504515     5.077673331     9.691327978
131 4 0     3.259354229     2.868880853     3.444557030
132 4 0     6.118028973    13.024227515     9.048984865
133 4 0    -1.446388222     3.945337103     8.517396964
134 4 0    10.823770874    11.947771027     3.976144557
135 4 0     9.385921073    11.891891525    10.222915880
136 4 0    -0.008538551     4.001217320     2.270626203
137 4 0    -1.559413649     2.875285807     9.304365293
138 4 0    10.936796643    13.017822799     3.189176603
139 4 0     9.498946929    10.821839753     9.435947551
140 4 0    -0.121563978     5.071268138     3.057594532
