# Position data file
 
140 atoms
5 atom types
 
    0.000000000    12.281900406 xlo xhi
    0.000000000    15.597599983 ylo yhi
    0.000000000    12.826776932 zlo zhi
    0.000000000    -3.098858922     0.000000000 xy xz yz
 
Masses
 
1    26.982000000
2    12.011000000
3     1.008000000
4    14.007000000
5    15.999000000
 
Atoms
 
1 1 0     4.591520742     7.798799992     6.413388466
2 1 0     6.140950203     0.000000000     0.000000000
3 1 0    -1.549429461     7.798799992     6.413388466
4 1 0     0.000000000     0.000000000     0.000000000
5 1 0     1.496416693     8.746853548     7.282261637
6 1 0     7.686624791     6.850746888     5.544515295
7 1 0     6.137195330     0.948053322    11.957903762
8 1 0     3.045846179    14.649546427     0.868873068
9 5 0     2.814758652     8.216051108     6.075172115
10 5 0     6.368282739     7.381548407     6.751605203
11 5 0     7.917712268     0.417251397     0.338216454
12 5 0     1.265329284    15.180348867    12.488560196
13 5 0     0.274452355     7.566848067     6.573800241
14 5 0     8.908589314     8.030751917     6.252976691
15 5 0     7.359159853    15.365648058    12.666365157
16 5 0     1.823881840     0.231951909     0.160411672
17 5 0     4.278839849    13.391131858     1.610632752
18 5 0     4.904201545     2.206467658    11.216144553
19 5 0     6.453631096     5.592332334     4.802755715
20 5 0     2.729410478    10.005268117     8.024020846
21 5 0     6.386821989    14.009670953     1.010083068
22 5 0     2.796219804     1.587929264    11.816694056
23 5 0     4.345649265     6.210870494     5.403305590
24 5 0     4.837392575     9.386729022     7.423471342
25 5 0     1.887322227    14.027249526     2.236989923
26 5 0     7.295719349     1.570350816    10.589787395
27 5 0     8.845148903     6.228449067     4.176398544
28 5 0     0.337892859     9.369150448     8.650378004
29 5 0     0.863203743    10.136333876     6.118680298
30 5 0     8.319838018     5.461265655     6.708096249
31 5 0     9.869267420     2.337534337     0.294708027
32 5 0    -0.686225810    13.260066098    12.532069149
33 5 0     5.052922058     8.802303016     4.822816743
34 5 0     4.130119426     6.795297435     8.003960190
35 5 0     5.679548908     1.003502790     1.590571634
36 5 0     3.503492598    14.594096959    11.236205209
37 5 0     7.184347907     8.218515716     4.273317567
38 5 0     1.998693934     7.379084267     8.553459365
39 5 0     3.548123441     0.419715802     2.140070706
40 5 0     5.634918446    15.177884259    10.686706034
41 5 0    -0.180683550    14.863155574     1.776726750
42 5 0     9.363725314     0.734444175    11.050049990
43 5 0    10.913154682     7.064355583     4.636661908
44 5 0    -1.730113058     8.533244400     8.190115409
45 5 0    -1.314315810     9.570625302     5.760685031
46 5 0    10.497369522     6.026975149     7.066091517
47 5 0    12.046798902     1.771824968     0.652703384
48 5 0    -2.863745364    13.825774672    12.174073882
49 5 0     9.489661355    12.878408144     0.753855347
50 5 0    -0.306620159     2.719192073    12.072921252
51 5 0     1.242809212     5.079608152     5.659533158
52 5 0     7.940231814    10.517991831     7.167244146
53 3 0     2.480969582     7.905300560     5.220972674
54 3 0     6.702072364     7.692299423     7.605803874
55 3 0     8.251501754     0.106500413     1.192415702
56 3 0     0.931540028    15.491099415    11.634361525
57 3 0     0.624389903     6.691136429     6.301103053
58 3 0     8.558651304     8.906463554     6.525674264
59 3 0    10.108080811    14.489936420     0.112285605
60 3 0    -0.925039465     1.107663563    12.714491135
61 3 0     4.270279897    11.074373742     3.161723489
62 3 0     4.912761587     4.523226241     9.665053443
63 3 0     6.462191048     3.275573984     3.251664977
64 3 0     2.720850436    12.322026233     9.575111955
65 3 0     8.403113142    10.200237930     3.098692707
66 3 0     0.779928754     5.397362521     9.728084046
67 3 0     2.329358215     2.401437704     3.314695579
68 3 0     6.853683638    13.196162045     9.512081353
69 3 0     1.634428444    12.335939027     4.637559847
70 3 0     7.548612672     3.261660956     8.189217085
71 3 0     9.098042086     4.537139035     1.775828812
72 3 0     0.084998983    11.060460948    11.050948313
73 3 0    10.414126614    12.913892528     2.346710121
74 3 0    -1.231085084     2.683707456    10.480066619
75 3 0     0.318344377     5.115092536     4.066678153
76 3 0     8.864697107    10.482507447     8.760098780
77 3 0     8.310161321    11.198328306     6.578405041
78 3 0     0.872880336     4.399271677     6.248371891
79 3 0    -0.676549125     3.399528080    12.661760357
80 3 0     9.859590803    12.198071669     0.165016485
81 3 0     7.096289565    10.891663752     7.557690890
82 3 0     2.086751920     4.705936231     5.269086043
83 3 0     0.537322459     3.092863761    11.682474509
84 3 0     8.645719026    12.504736223     1.144302424
85 2 0     5.535211905    13.234439210     1.553258578
86 2 0     3.647829580     2.363161225    11.273518354
87 2 0     5.197259040     5.435638767     4.860129888
88 2 0     3.985782444    10.161960764     7.966647044
89 2 0     6.161062256     8.967450248     4.225101751
90 2 0     3.021979689     6.630149735     8.601674796
91 2 0     4.571409057     1.168650148     2.188286715
92 2 0     4.611632703    14.428949726    10.638490602
93 2 0     0.627683379    14.088860031     2.381752991
94 2 0     8.555357875     1.508740296    10.445024134
95 2 0    10.104787336     6.290059587     4.031635667
96 2 0    -0.921746036     9.307539944     8.795141265
97 2 0    -0.280213634    10.287490218     5.572016020
98 2 0     9.463267382     5.310109313     7.254760527
99 2 0    11.012696750     2.488690679     0.841372446
100 2 0    -1.829643188    13.108909757    11.985404871
101 2 0     5.334519234    11.084777903     2.961677050
102 2 0     3.848522343     4.512822548     9.865099497
103 2 0     5.397951711     3.285977677     3.451711416
104 2 0     3.785089680    12.311622072     9.375065901
105 2 0     6.061631138    12.028058437     2.215646192
106 2 0     3.121410300     3.569542014    10.611130933
107 2 0     4.670839761     4.229257978     4.197742467
108 2 0     4.512201724    11.368341537     8.629034465
109 2 0     0.047114257    13.091346064     3.283975397
110 2 0     9.135927317     2.506253451     9.542801163
111 2 0    10.685356731     5.292546540     3.129412889
112 2 0    -1.502315293    10.305053911     9.697364236
113 2 0     0.622318787    12.291750886     4.256565822
114 2 0     8.560722697     3.305848864     8.570211110
115 2 0    10.110152204     4.492950894     2.156822451
116 2 0    -0.927110673    11.104649089    10.669954289
117 2 0     6.284297493    10.168855340     3.386141035
118 2 0     2.898744255     5.428744643     9.440636282
119 2 0     4.448173762     2.370055349     3.027247624
120 2 0     4.734868125    13.227544635     9.799529116
121 2 0    -0.399538418    11.396854184     4.618742722
122 2 0     9.582579676     4.200745799     8.208033826
123 2 0    11.132009043     3.598054427     1.794645745
124 2 0    -1.948967972    11.999545791    11.032131573
125 4 0     7.379506467    11.722890676     2.186606266
126 4 0     1.803535110     3.874709073    10.640170282
127 4 0     3.352964478     3.924091153     4.226782200
128 4 0     5.830076913    11.673509299     8.599995117
129 4 0     7.485424283    10.593921416     2.890860415
130 4 0     1.697617662     5.003679035     9.935916133
131 4 0     3.247047030     2.795121190     3.522528051
132 4 0     5.935994729    12.802478559     9.304249266
133 4 0    11.043260570    12.655611807     3.126732042
134 4 0    -1.860218818     2.941988176     9.700044698
135 4 0    -0.310789357     4.856811816     3.286656232
136 4 0     9.493831062    10.740788168     9.540120700
137 4 0    10.748978037    11.611399531     3.901879851
138 4 0    -1.565936276     3.986200453     8.924896697
139 4 0    -0.016506908     3.812599305     2.511508615
140 4 0     9.199548483    11.785000444    10.315268702
