# Position data file
 
128 atoms
5 atom types
 
    0.000000000    12.043800354 xlo xhi
    0.000000000    14.964900017 ylo yhi
    0.000000000    13.775348201 zlo zhi
    0.000000000    -2.910204129     0.000000000 xy xz yz
 
Masses
 
1    26.982000000
2    12.011000000
3     1.008000000
4    14.007000000
5    15.999000000
 
Atoms
 
1 1 0     4.566798112     7.482450008     6.887674100
2 1 0     6.021900177     0.000000000     0.000000000
3 1 0     7.601699831     6.424251998     5.986036331
4 1 0     1.531896033     8.540647569     7.789311870
5 1 0     2.986998077    13.906702456     0.901637866
6 1 0     6.146597766     1.058198010    12.873710431
7 1 0    -1.455102064     7.482450008     6.887674100
8 1 0     0.000000000     0.000000000     0.000000000
9 5 0     6.396678610     5.161828148     5.232166556
10 5 0     2.736917977     9.803072318     8.543181644
11 5 0     4.192020041    12.644277707     1.655507544
12 5 0     4.941576545     2.320622085    12.119840657
13 5 0     6.305552633     6.951540071     7.251659809
14 5 0     2.828043318     8.013359512     6.523687978
15 5 0     1.372941166    14.433990513    13.411362492
16 5 0     7.760654631     0.530909773     0.363986026
17 5 0     8.858352912     5.792972731     4.721224896
18 5 0     0.275243493     9.171927735     9.054123305
19 5 0     1.730345601    13.275422290     2.166448998
20 5 0     7.403250848     1.689477397    11.608898996
21 5 0     8.774342702     7.684790661     6.668329327
22 5 0     0.359253604     7.280109805     7.107019287
23 5 0     1.814355733     0.202340413     0.219344883
24 5 0     7.319240725    14.762559364    13.556003014
25 5 0     3.529187549     0.266450060     2.169052635
26 5 0     5.604409069    14.698450271    11.606295359
27 5 0     7.059511046     7.748899754     4.718621672
28 5 0     2.074085441     7.215999814     9.056726942
29 5 0     9.639948180     2.392603120     0.371782873
30 5 0    -0.506352185    12.572296897    13.403565562
31 5 0     0.948749966     9.875053128     6.515891049
32 5 0     8.184846165     5.089846889     7.259456739
33 5 0     4.320449543     6.050743089     5.593879539
34 5 0     4.813146682     8.914156928     8.181468661
35 5 0     6.268248770    13.533193097     1.293794451
36 5 0     2.865347478     1.431706920    12.481553640
37 5 0     5.433316617     1.203432365     1.372162448
38 5 0     3.700279882    13.761467996    12.403186166
39 5 0     5.155382034     8.685882029     5.515511652
40 5 0     3.978214640     6.279017539     8.259836135
41 5 0    11.821035300     1.791448151     0.675570640
42 5 0    -2.687438842    13.173451417    13.099777767
43 5 0    -1.232336777     9.273898608     6.212103667
44 5 0    10.365933279     5.691001857     7.563244534
45 5 0    10.861256627     6.767801163     5.141001399
46 5 0    -1.727660522     8.197098854     8.634347202
47 5 0    -0.272558417    14.250251172     1.746672908
48 5 0     9.406154647     0.714648785    12.028675099
49 3 0     6.353622730     6.402762477     8.050795433
50 3 0     2.779973134     8.562137989     5.724552768
51 3 0     1.324871069    13.885212036    12.612226868
52 3 0     7.808724751     1.079687651     1.163121539
53 3 0     8.378989044     8.218259237     7.375996804
54 3 0     0.754606732     6.746640780     6.399351810
55 3 0    -0.700495245     0.735809169    13.287025497
56 3 0     9.834091196    14.229090788     0.488322291
57 3 0     0.953015879     3.193090751     2.535917653
58 3 0     8.180580439    11.771809490    11.239430961
59 3 0     9.635682591    10.675540535     4.351756447
60 3 0    -0.502086098     4.289359482     9.423591340
61 3 0     2.453358399     4.524487886     4.364429740
62 3 0     6.680237564    10.440412580     9.410918047
63 3 0     8.135339541    12.006937445     2.523244360
64 3 0     0.998256247     2.957962122    11.252104254
65 3 0     6.291450489     2.969664644     3.537812338
66 3 0     2.842146098    11.995235597    10.237535863
67 3 0     4.297248206    10.452114428     3.349861556
68 3 0     4.836348424     4.512785140    10.425486438
69 3 0     8.952273344     4.435446671     2.286473703
70 3 0     0.181322744    10.529453346    11.488874291
71 3 0     1.636424721    11.917896679     4.601200604
72 3 0     7.497171236     3.047003337     9.174148010
73 4 0     0.066718636     3.705758191     2.642552679
74 4 0     9.066877637    11.259141826    11.132795522
75 4 0    10.521979702    11.188208200     4.245121422
76 4 0    -1.388383429     3.776691817     9.530226779
77 4 0     3.229002898     3.942817277     4.046150375
78 4 0     5.904592977    11.022082740     9.729197826
79 4 0     7.359695042    11.425267285     2.841523725
80 4 0     1.773900834     3.539632731    10.933824475
81 4 0     2.974962785     2.887642177     3.262622372
82 4 0     6.158633481    12.077258274    10.512725636
83 4 0     7.613735461    10.370091751     3.625051935
84 4 0     1.519860680     4.594807832    10.150296665
85 4 0    -0.037259014     4.632010872     3.598437618
86 4 0     9.170855291    10.332889145    10.176910170
87 4 0    10.625957311    12.114460881     3.289236276
88 4 0    -1.492361166     2.850439361    10.486112131
89 2 0     5.131582162     5.197998281     5.104937344
90 2 0     4.002013786     9.766886576     8.670410457
91 2 0     5.457115766    12.680463449     1.782736756
92 2 0     3.676480013     2.284451952    11.992611844
93 2 0    10.109418871     5.940960717     4.534899633
94 2 0    -0.975822558     9.023939749     9.240448155
95 2 0     0.479279419    13.423410276     2.352774468
96 2 0     8.654316719     1.541489516    11.422574146
97 2 0     4.385358902     1.194064367     2.107531765
98 2 0     4.748237769    13.770835545    11.667816037
99 2 0     6.203339749     8.676514480     4.780142336
100 2 0     2.930256753     6.288385536     8.995206264
101 2 0     5.221284796     3.128053101     3.576300633
102 2 0     3.912311513    11.836847140    10.199047168
103 2 0     5.367413534    10.610502885     3.311373274
104 2 0     3.766182647     4.354396683    10.463975133
105 2 0    10.787263190     2.489156789     0.924436040
106 2 0    -1.653666767    12.475743003    12.850912478
107 2 0    -0.198564615     9.971607022     5.963237964
108 2 0     9.332161192     4.993293444     7.812109823
109 2 0     9.997808625     4.337935233     2.549624056
110 2 0    -0.864212176    10.626964335    11.225723938
111 2 0     0.590889889    11.820385690     4.338049838
112 2 0     8.542706517     3.144514551     9.437298363
113 2 0     4.562502740     4.125882734     4.278526848
114 2 0     4.571093124    10.839016833     9.496821353
115 2 0     6.026195145    11.608333192     2.609147459
116 2 0     3.107400675     3.356567274    11.166200948
117 2 0    10.934799262     3.497072690     1.973800850
118 2 0    -1.801202944    11.467827102    11.801547764
119 2 0    -0.346100792    10.979522923     4.913873251
120 2 0     9.479697285     3.985377543     8.861474537
121 2 0    10.706369474     5.023028416     3.551270991
122 2 0    -1.572772900     9.941871167    10.224076810
123 2 0    -0.117670920    12.505478858     3.336403110
124 2 0     9.251267325     2.459421383    10.438945491
125 2 0     4.198336321     2.380526415     2.969992568
126 2 0     4.935259499    12.584373392    10.805355840
127 2 0     6.390361647     9.862976633     3.917681340
128 2 0     2.743234301     5.101923383     9.857666461
