# Position data file
 
152 atoms
5 atom types
 
    0.000000000    12.272700310 xlo xhi
    0.000000000    15.499600410 ylo yhi
    0.000000000    13.062396640 zlo zhi
    0.000000000    -3.078673985     0.000000000 xy xz yz
 
Masses
 
1    26.982000000
2    12.011000000
3     1.008000000
4    14.007000000
5    15.999000000
 
Atoms
 
1 1 0    -1.539336992     7.749800205     6.531198320
2 1 0     0.000000000     0.000000000     0.000000000
3 1 0     4.597013163     7.749800205     6.531198320
4 1 0     6.136350155     0.000000000     0.000000000
5 1 0     7.665438506     6.860805124     7.452580213
6 1 0     1.528587543     8.638795286     5.609816035
7 1 0    -0.010749541    14.610605329    12.141014747
8 1 0     9.204775406     0.888995081     0.921382285
9 5 0     8.942757441     7.374709999     6.211091189
10 5 0     0.251268977     8.124890876     6.851305059
11 5 0     1.790605883    15.124509740     0.320107105
12 5 0     7.403420356     0.375090330    12.742289900
13 5 0    -1.191761907    13.357695363    11.386961266
14 5 0    10.385788646     2.141905280     1.675435177
15 5 0     8.846451608     5.607894692     8.206633693
16 5 0     0.347575085     9.891705253     4.855762947
17 5 0     6.405711474     8.033319051     6.764284000
18 5 0     2.788314762     7.466281360     6.298113019
19 5 0     1.248977859     0.283518706    12.829310960
20 5 0     7.945048528    15.216081565     0.233085419
21 5 0     1.164718118    14.013963851    10.754506342
22 5 0     8.029307840     1.485636668     2.307890298
23 5 0     6.489970847     6.264163645     8.839088618
24 5 0     2.704055110     9.235436765     4.223308022
25 5 0     8.202888782     8.194670062     8.703266209
26 5 0     0.991137279     7.304930814     4.359130822
27 5 0    -0.548199621     0.444869531    10.890328750
28 5 0     9.742225867    15.054730554     2.172067498
29 5 0     2.148065320    10.079948551     6.746166456
30 5 0     7.045960557     5.419652324     6.316230576
31 5 0     5.506623657     2.330147881    12.847428504
32 5 0     3.687402373    13.169452065     0.214967875
33 5 0     8.973968904    13.908752331    12.045371709
34 5 0     0.220057424     1.590847971     1.017025127
35 5 0    -1.319279522     6.158952125     7.548223251
36 5 0    10.513305988     9.340648285     5.514172997
37 5 0    10.325071784     8.768651388     8.122982327
38 5 0    -1.131045769     6.730949487     4.939414691
39 5 0    -2.670382672     1.018850718    11.470612633
40 5 0    11.864408865    14.480749228     1.591783628
41 5 0     4.291944254     9.500480490     7.241322790
42 5 0     4.902081610     5.999120385     5.821074241
43 5 0     3.362744710     1.750679820    12.352272169
44 5 0     5.831281327    13.748920126     0.710124131
45 5 0     3.258448771    14.703463156    11.305856637
46 5 0     5.935577278     0.796136960     1.756539611
47 5 0     4.396240193     6.953663416     8.287738323
48 5 0     4.797785671     8.545937459     4.774658709
49 5 0     7.384039353    10.499879116     5.573162846
50 5 0     1.809987420     4.999706042     7.489233402
51 5 0     3.349324345     2.750094163     0.958035370
52 5 0     5.844702269    12.749521499    12.104361557
53 5 0     7.110496142    13.941115651     3.602765742
54 5 0     2.083529723     1.558484868     9.459631290
55 5 0     3.622866808     6.191315446     2.928432578
56 5 0     5.571159242     9.308284965    10.133963670
57 3 0     8.635320271     7.600120626     5.321790281
58 3 0     0.558706239     7.899480234     7.740606359
59 3 0     2.098043206    15.349920382     1.209408144
60 3 0     7.095983278     0.149679641    11.852988600
61 3 0     6.775619330     8.859571905     6.383031529
62 3 0     2.418406995     6.640028971     6.679365111
63 3 0     3.957743994     1.109771358     0.148166765
64 3 0     5.236282338    14.389828711    12.914229848
65 3 0    -1.174534443    11.150226664     9.684761447
66 3 0    10.368560400     4.349373746     3.377635192
67 3 0     8.829223407     3.400426226     9.908833512
68 3 0     0.364802596    12.099173952     3.153562932
69 3 0     7.062059090     9.841889506    10.279452931
70 3 0     2.131967466     5.657710439     2.782943513
71 3 0     0.592630427     2.092089534     9.314142028
72 3 0     8.601396082    13.407511109     3.748254611
73 3 0     1.347262840    12.368696488     8.318708651
74 3 0     7.846763933     3.130903690     4.743687597
75 3 0     6.307426848     4.618896282    11.274886308
76 3 0     2.886599787    10.880704128     1.787510527
77 3 0     4.901123615    12.787123964    10.598057795
78 3 0     4.292902756     2.712476679     2.464338648
79 3 0     2.753565718     5.037323759     8.995537164
80 3 0     6.440460607    10.462276652     4.066859475
81 3 0     6.987992570    11.149559654     6.180655739
82 3 0     2.206033847     4.350040307     6.881740509
83 3 0     3.745370772     3.399759899     0.350542476
84 3 0     5.448655486    12.099840961    12.711854451
85 3 0     8.266597375    10.902016373     5.289251890
86 3 0     0.927428766     4.597584502     7.773144750
87 3 0     2.466765734     3.152215703     1.241946535
88 3 0     6.727260383    12.347384243    11.820450210
89 3 0     6.725004033    13.150527037     3.126132016
90 3 0     2.469021970     2.349072908     9.936264427
91 3 0     4.008358870     5.400727297     3.405066499
92 3 0     5.185666995    10.098873579     9.657330532
93 3 0     7.179346506    14.612279348     2.899747568
94 3 0     2.014679497     0.887321124    10.162648876
95 3 0     3.554016397     6.862479143     3.631450948
96 3 0     5.640009468     8.637121268     9.430946084
97 2 0    -2.440509177    13.154697282    11.482408107
98 2 0    11.634535819     2.344903593     1.579988336
99 2 0    10.095198780     5.404896612     8.111186852
100 2 0    -0.901172278    10.094703334     4.951210179
101 2 0     2.425052048    14.002897074    10.638590634
102 2 0     6.768974277     1.496703445     2.423806006
103 2 0     5.229637285     6.253096869     8.955004325
104 2 0     3.964389040     9.246503542     4.107392314
105 2 0     9.245104823     8.920640113     8.775618824
106 2 0    -0.051078958     6.578960297     4.286778207
107 2 0    -1.590415858     1.170839800    10.817976135
108 2 0    10.784441907    14.328760502     2.244420113
109 2 0     3.257242256    10.239919338     7.344645734
110 2 0     5.936784530     5.259681073     5.717750514
111 2 0     4.397447445     2.490119365    12.248949226
112 2 0     4.796579177    13.009481278     0.813447714
113 2 0    -2.201322290    11.056918930    10.015174235
114 2 0    11.395348659     4.442681480     3.047222013
115 2 0     9.856011574     3.307118725     9.578420725
116 2 0    -0.661985390    12.192481686     3.483976307
117 2 0     9.352271162    11.922432551    10.855086352
118 2 0    -0.158244928     3.577168325     2.207309896
119 2 0    -1.697582013     4.172631880     8.738508608
120 2 0    10.891608062    11.326968065     4.323888424
121 2 0     2.364147920    12.283975920     8.681464416
122 2 0     6.829878498     3.215624491     4.380931832
123 2 0     5.290541413     4.534175715    10.912130543
124 2 0     3.903484820    10.965424696     2.150266488
125 2 0     3.358663697    11.375854409     8.279848191
126 2 0     5.835362628     4.123746001     4.782548449
127 2 0     4.296025635     3.626053972    11.313746768
128 2 0     4.898000644    11.873546206     1.748650067
129 2 0     9.157313601    10.063007023     9.690482451
130 2 0     0.036709695     5.436593388     3.371927042
131 2 0    -1.502624268     2.313206818     9.903112509
132 2 0    10.696653623    13.186393593     3.159271277
133 2 0     2.970483948    13.037256779     9.681169079
134 2 0     6.223542377     2.462344097     3.381227560
135 2 0     4.684205385     5.287456109     9.912425880
136 2 0     4.509820940    10.212143837     3.149970760
137 4 0     8.082539576    11.487156869    11.035557195
138 4 0     1.111486472     4.012443541     2.026839837
139 4 0    -0.427850428     3.737356664     8.558037765
140 4 0     9.621876661    11.762243746     4.504358483
141 4 0     7.993418170    10.359576145    10.337371467
142 4 0     1.200608017     5.140023801     2.725024977
143 4 0    -0.338729021     2.609776172     9.256223492
144 4 0     9.532755070    12.889824471     3.806173539
145 4 0     4.497102303    11.557106953     8.995523932
146 4 0     4.696920903     3.942493922     4.066885940
147 4 0     3.157587029     3.807306283    10.598071028
148 4 0     6.036439296    11.692293662     2.464325612
149 4 0     4.244857078    12.574298904     9.814313958
150 4 0     4.949169293     2.925301506     3.248082486
151 4 0     3.409832255     4.824498699     9.779281002
152 4 0     5.784194070    10.675101712     3.283115638
