# Position data file
 
128 atoms
5 atom types
 
    0.000000000    12.239000320 xlo xhi
    0.000000000    15.074000359 ylo yhi
    0.000000000    13.358706116 zlo zhi
    0.000000000    -2.809763788     0.000000000 xy xz yz
 
Masses
 
1    26.982000000
2    12.011000000
3     1.008000000
4    14.007000000
5    15.999000000
 
Atoms
 
1 1 0    -1.404881894     7.537000179     6.679353058
2 1 0     0.000000000     0.000000000     0.000000000
3 1 0     1.671188819     6.545779047     5.838435840
4 1 0     7.758048081     8.528220874     7.520270276
5 1 0     9.162929975    14.082779664     0.840917218
6 1 0     0.266306925     0.991221027    12.517788898
7 1 0     4.714618266     7.537000179     6.679353058
8 1 0     6.119500160     0.000000000     0.000000000
9 5 0     0.368125840     7.146870097     7.034748035
10 5 0     9.061110509     7.927130262     6.323958080
11 5 0     7.656228615    14.683870276    13.003311138
12 5 0     1.773007725     0.390130203     0.355395017
13 5 0     2.884326691     7.805498485     6.519382686
14 5 0     6.544909841     7.268501874     6.839323430
15 5 0     7.949791707     0.268498109     0.159970506
16 5 0     1.479444798    14.805502053    13.198735743
17 5 0     7.916695118    13.393973127     2.123860623
18 5 0     1.512541727     1.680027458    11.234845693
19 5 0     2.917423621     5.856972495     4.555492636
20 5 0     6.511813266     9.217027411     8.803213480
21 5 0    10.371836355    12.800162910     1.534821782
22 5 0    -0.942599944     2.273837675    11.823884040
23 5 0     0.462281866     5.263162731     5.144531383
24 5 0     8.966954399     9.810837628     8.214175133
25 5 0     1.200902252     7.824536374     4.511916363
26 5 0     8.228334013     7.249463532     8.846790154
27 5 0     9.633215991     0.287536572     2.167436695
28 5 0    -0.203979557    14.786464164    11.191269020
29 5 0     0.239884085    13.415121557     0.908913005
30 5 0     9.189352129     1.658878696    12.449793110
31 5 0    10.594234023     5.878121378     5.770440052
32 5 0    -1.164997809     9.195878980     7.588266063
33 5 0    -0.938175259     8.424075299     5.004224572
34 5 0    10.367411853     6.649925497     8.354481544
35 5 0    11.772293789     0.887074788     1.675128285
36 5 0    -2.343057153    14.186925239    11.683577630
37 5 0     7.146251597     9.820997655     6.264111024
38 5 0     2.282984568     5.253002704     7.094595092
39 5 0     3.687866468     2.283997475     0.415242008
40 5 0     5.741369703    12.790002883    12.943464081
41 5 0     4.922547772     9.363592037     6.124632706
42 5 0     4.506688761     5.710408322     7.234073409
43 5 0     5.911570674     1.826591978     0.554720258
44 5 0     3.517665878    13.247408501    12.803985764
45 5 0     5.954810120    14.514347676     1.833949889
46 5 0     3.474426046     0.559652396    11.524756227
47 5 0     4.879307939     6.977347949     4.845403169
48 5 0     4.549928226     8.096652862     8.513302947
49 5 0     1.262137043    11.197570306     2.109686929
50 5 0     8.167099758     3.876430053    11.249018786
51 5 0     9.571981567     3.660570353     4.569666129
52 5 0    -0.142744935    11.413430232     8.789040387
53 5 0     4.568518546    11.598674442     4.554597268
54 5 0     4.860718439     3.475325917     8.804108446
55 5 0     6.265600290     4.061674262     2.124755589
56 5 0     3.163636567    11.012326096    11.233950727
57 3 0     0.749809207     7.645292235     7.772709705
58 3 0     8.679426959     7.428708576     5.585996410
59 3 0     7.274545065     0.108291619    12.265349468
60 3 0     2.154691101    14.965708303     1.093356647
61 3 0     2.729380684     8.695014779     6.161289250
62 3 0     6.699856216     6.378985128     7.197416866
63 3 0     8.104738079     1.158014825     0.518063955
64 3 0     1.324498790    13.915985759    12.840642307
65 3 0    10.458730627    10.528194291     3.212715319
66 3 0    -1.029493855     4.545806068    10.145990997
67 3 0     0.375388124     2.991194112     3.466637538
68 3 0     9.053848775    12.082806247     9.892068177
69 3 0     3.861926757    13.013022809     3.199597043
70 3 0     5.567309776     2.060977550    10.159109073
71 3 0     6.972191670     5.476022630     3.479756015
72 3 0     2.457044863     9.597977729     9.878950101
73 3 0     7.861873513    11.810177635     4.419193704
74 3 0     1.567365502     3.263822512     8.939498866
75 3 0     2.972247311     4.273177456     2.260146209
76 3 0     6.456988770    10.800822903    11.098560307
77 3 0     2.492116232     9.737095754     2.936510685
78 3 0     6.937120017     5.336904605    10.422195030
79 3 0     8.342001827     2.200095574     3.742842373
80 3 0     1.087234254    12.873904784     9.615864143
81 2 0    11.633710922    12.648759063     1.476938548
82 2 0    -2.204474622     2.425240844    11.881767567
83 2 0    -0.799592728     5.111759336     5.202414510
84 2 0    10.228829028     9.962241475     8.156291606
85 2 0     0.160422799     8.552580474     4.378048755
86 2 0     9.268813648     6.521419433     8.980657360
87 2 0    10.673695541     1.015580626     2.301304303
88 2 0    -1.244459094    14.058420064    11.057401813
89 2 0     6.703677874    13.656607043     2.407866621
90 2 0     2.725558334     1.417393210    10.950839294
91 2 0     4.130440228     6.119606864     4.271486236
92 2 0     5.298795938     8.954393495     9.087219879
93 2 0     5.963857816    10.051162280     5.856189627
94 2 0     3.465378717     5.022837627     7.502516489
95 2 0     4.870260600     2.514162327     0.823163484
96 2 0     4.558975922    12.559838258    12.535542685
97 2 0    11.515158103    10.555734520     2.972539195
98 2 0    -2.085921675     4.518265839    10.386166720
99 2 0    -0.681039781     3.018734341     3.706813662
100 2 0    10.110276167    12.055266018     9.651892454
101 2 0     4.753832828    12.590166469     3.647995346
102 2 0     4.675403705     2.483833438     9.710710770
103 2 0     6.080285641     5.053166741     3.031357512
104 2 0     3.348950934    10.020834069    10.327348404
105 2 0     6.098487954    12.819533242     3.453679914
106 2 0     3.330748946     2.254467554     9.905026202
107 2 0     4.735630798     5.282532625     3.225673344
108 2 0     4.693606060     9.791467296    10.133032972
109 2 0    -0.094146453    11.472565520     2.173434781
110 2 0     9.523383220     3.601434838    11.185271735
111 2 0    10.928265198     3.935565341     4.505918277
112 2 0    -1.499028263    11.138435017     8.852787438
113 2 0     0.287665275     9.660564978     3.423315268
114 2 0     9.141571355     5.413435380     9.935390848
115 2 0    10.546453291     2.123564799     3.256037590
116 2 0    -1.117216618    12.950435559    10.102668325
117 2 0     6.789213617    11.923232517     4.317119603
118 2 0     2.640023271     3.150767615     9.041586512
119 2 0     4.044905165     4.386232790     2.362233455
120 2 0     5.384331723    10.687768021    10.996472661
121 2 0     1.471002902    10.093957804     2.863839364
122 2 0     7.958233715     4.980042555    10.494866351
123 2 0     9.363115525     2.556957399     3.815513694
124 2 0     0.066120924    12.517042734     9.543192822
125 2 0     5.828838732    11.198279206     4.967287750
126 2 0     3.600397800     3.875721605     8.391418366
127 2 0     5.005279736     3.661278800     1.712065108
128 2 0     4.423956839    11.412721332    11.646640807
