# Position data file
 
140 atoms
5 atom types
 
    0.000000000    12.281900406 xlo xhi
    0.000000000    15.597599983 ylo yhi
    0.000000000    12.826776932 zlo zhi
    0.000000000    -3.098858922     0.000000000 xy xz yz
 
Masses
 
1    26.982000000
2    12.011000000
3     1.008000000
4    14.007000000
5    15.999000000
 
Atoms
 
1 1 0     4.591520742     7.798799992     6.413388466
2 1 0     6.140950203     0.000000000     0.000000000
3 1 0    -1.549429461     7.798799992     6.413388466
4 1 0     0.000000000     0.000000000     0.000000000
5 1 0     1.507380820     8.680219930     7.315880555
6 1 0     7.675660664     6.917379601     5.510896377
7 1 0     6.126231203     0.881420391    11.924284843
8 1 0     3.056810306    14.716180045     0.902491986
9 5 0     2.803968719     8.147718007     6.100415160
10 5 0     6.379073134     7.449881508     6.726361772
11 5 0     7.928502582     0.348918296     0.312973357
12 5 0     1.254539258    15.248681968    12.513803627
13 5 0     0.235722906     7.514611611     6.700708552
14 5 0     8.947318116     8.082988372     6.126068766
15 5 0     7.397888748    15.313411602    12.539456847
16 5 0     1.785152439     0.284188272     0.287319790
17 5 0     4.234586414    13.419551527     1.622587231
18 5 0     4.948455482     2.178048908    11.204189522
19 5 0     6.497884943     5.620751083     4.790801056
20 5 0     2.685156909     9.976848448     8.035975876
21 5 0     6.320085176    14.024269870     1.053078348
22 5 0     2.862956593     1.573329879    11.773698880
23 5 0     4.412386147     6.225469879     5.360310029
24 5 0     4.770655786     9.372130105     7.466466519
25 5 0     1.889814508    14.051097914     2.248534022
26 5 0     7.293227345     1.546502070    10.578242910
27 5 0     8.842656806     6.252297922     4.164854444
28 5 0     0.340385047     9.345302061     8.661922488
29 5 0     0.895372648    10.021457724     6.095284360
30 5 0     8.287669020     5.576141791     6.731492573
31 5 0     9.837098488     2.222657966     0.318104081
32 5 0    -0.654056813    13.374942251    12.508672826
33 5 0     5.019858090     8.850077903     4.884436771
34 5 0     4.163183763     6.747521628     7.942340161
35 5 0     5.712613199     1.051278254     1.528951798
36 5 0     3.470428629    14.546322072    11.297825237
37 5 0     7.090410690     8.234596545     4.270033887
38 5 0     2.092630794     7.363002970     8.556743046
39 5 0     3.642060302     0.435796928     2.143354387
40 5 0     5.540981229    15.161803430    10.683422353
41 5 0    -0.179173480    14.611831711     1.600781723
42 5 0     9.362215004     0.985768272    11.225994838
43 5 0    10.911644375     6.813031719     4.812606744
44 5 0    -1.728603030     8.784568264     8.014170561
45 5 0    -1.186331996     9.411591705     5.505252582
46 5 0    10.369373787     6.186008278     7.321524350
47 5 0    11.918803270     1.612791823     0.908135794
48 5 0    -2.735761457    13.984808270    11.918641049
49 5 0     9.442739417    12.775744413     0.613517555
50 5 0    -0.259697564     2.821855336    12.213259378
51 5 0     1.289731897     4.976944421     5.799870912
52 5 0     7.893309956    10.620655562     7.026906021
53 3 0     2.517100213     8.042902026     5.222050290
54 3 0     6.665941271     7.554697489     7.604726642
55 3 0     8.215370732     0.244102440     1.191338176
56 3 0     0.967670752    15.353497949    11.635438756
57 3 0     0.539867347     6.657539308     6.505767286
58 3 0     8.643174044     8.940060676     6.321010032
59 3 0     7.093744677    14.456339299    12.734398113
60 3 0     2.089296897     1.141260793     0.092378447
61 3 0     4.354502001    11.139540328     3.219046445
62 3 0     4.828539394     4.458059188     9.607730859
63 3 0     6.377968944     3.340740804     3.194342021
64 3 0     2.805072630    12.256859647     9.632434539
65 3 0     8.102723465    10.133978966     2.977441198
66 3 0     1.080318066     5.463621017     9.849335542
67 3 0     2.629747527     2.335178975     3.435947076
68 3 0     6.553293957    13.262421008     9.390829856
69 3 0     1.615729208    12.170432924     4.387873653
70 3 0     7.567312183     3.427167059     8.438903664
71 3 0     9.116741737     4.371632933     2.025514813
72 3 0     0.066299840    11.225967050    10.801261735
73 3 0    10.524712717    12.915062083     2.564701170
74 3 0    -1.341670956     2.682537667    10.262075378
75 3 0     0.207758412     5.116262559     3.848687297
76 3 0     8.975283164    10.481337892     8.978090021
77 3 0     8.244727042    11.375282594     6.525468599
78 3 0     0.938314904     4.222316921     6.301307948
79 3 0    -0.611114650     3.576482837    12.714696799
80 3 0     9.794156444    12.021117381     0.112080377
81 3 0     7.055954263    10.943525538     7.455461798
82 3 0     2.127086772     4.654074445     5.371315519
83 3 0     0.577657404     3.144725781    11.784703600
84 3 0     8.605383792    12.452874437     1.042073050
85 2 0     5.468709519    13.254840325     1.577693601
86 2 0     3.714332037     2.342759424    11.249083036
87 2 0     5.263761404     5.456040334     4.835694955
88 2 0     3.919279987    10.141559649     7.991082362
89 2 0     6.090410829     8.998255508     4.245663165
90 2 0     3.092630562     6.599344475     8.581114153
91 2 0     4.642060116     1.199455408     2.167725302
92 2 0     4.540981461    14.398144467    10.659051246
93 2 0     0.644648824    13.970769962     2.288296941
94 2 0     8.538392245     1.626829678    10.538480184
95 2 0    10.087821799     6.171970438     4.125091333
96 2 0    -0.904780590     9.425630013     8.701685214
97 2 0    -0.183981330    10.146238789     5.438553355
98 2 0     9.367022809     5.451361194     7.388223192
99 2 0    10.916452198     2.347438797     0.974835021
100 2 0    -1.733410884    13.250161186    11.851942206
101 2 0     5.260434314    11.121088788     3.009161779
102 2 0     3.922607217     4.476511195     9.817614961
103 2 0     5.472036678     3.322288796     3.404226495
104 2 0     3.711004807    12.275311187     9.422550437
105 2 0     5.971135049    12.027309113     2.228011217
106 2 0     3.211905974     3.570290636    10.598766100
107 2 0     4.761335528     4.228509574     4.185377249
108 2 0     4.421705681    11.369090862     8.641399299
109 2 0     0.109937371    12.950686845     3.184888725
110 2 0     9.073103889     2.646912670     9.641888015
111 2 0    10.622533257     5.151887321     3.228499933
112 2 0    -1.439492136    10.445713130     9.598277384
113 2 0     0.730287653    12.136492765     4.104568529
114 2 0     8.452753647     3.461107452     8.722208404
115 2 0    10.002183108     4.337692774     2.308819938
116 2 0    -0.819141808    11.259907210    10.517956995
117 2 0     6.195142564    10.189911866     3.400378590
118 2 0     2.987899289     5.407688117     9.426398342
119 2 0     4.537328749     2.391112109     3.013009876
120 2 0     4.645713103    13.206488109     9.813767057
121 2 0    -0.254400941    11.258348120     4.515025455
122 2 0     9.437442696     4.339252331     8.311751478
123 2 0    10.986872156     3.459547661     1.898363012
124 2 0    -1.803830402    12.138051855    10.928413921
125 4 0     7.250471426    11.670124292     2.148485187
126 4 0     1.932570105     3.927475691    10.678291553
127 4 0     3.481999473     3.871324300     4.264903471
128 4 0     5.701041918    11.726275683     8.561873846
129 4 0     7.365559586    10.562695005     2.866784619
130 4 0     1.817481576     5.034905431     9.959992121
131 4 0     3.366911037     2.763894779     3.546603655
132 4 0     5.816130079    12.833704970     9.280173277
133 4 0    11.107067884    12.552948061     3.083557187
134 4 0    -1.924026673     3.044651454     9.743219553
135 4 0    -0.374597302     4.754148537     3.329831458
136 4 0     9.557638377    10.843451914     9.496945846
137 4 0    10.865489932    11.537545004     3.885230566
138 4 0    -1.682448591     4.060055432     8.941545994
139 4 0    -0.133019177     3.738744778     2.528157721
140 4 0     9.316060381    11.858854971    10.298619404
