# Position data file
 
152 atoms
5 atom types
 
    0.000000000    12.281900406 xlo xhi
    0.000000000    15.597599983 ylo yhi
    0.000000000    12.826776932 zlo zhi
    0.000000000    -3.098858922     0.000000000 xy xz yz
 
Masses
 
1    26.982000000
2    12.011000000
3     1.008000000
4    14.007000000
5    15.999000000
 
Atoms
 
1 1 0     4.591520742     7.798799992     6.413388466
2 1 0     6.140950203     0.000000000     0.000000000
3 1 0    -1.549429461     7.798799992     6.413388466
4 1 0     0.000000000     0.000000000     0.000000000
5 1 0     1.525167785     8.683293484     7.329797390
6 1 0     7.657873699     6.914306967     5.496979542
7 1 0     6.108444238     0.884493071    11.910368008
8 1 0     3.074597200    14.713106491     0.916409116
9 5 0     2.799063543     8.159400484     6.089961286
10 5 0     6.383977849     7.438199031     6.736816031
11 5 0     7.933407403     0.360600930     0.323427180
12 5 0     1.249634175    15.236999490    12.503349367
13 5 0     0.263759441     7.517185449     6.631328477
14 5 0     8.919281951     8.080415002     6.195448840
15 5 0     7.369852583    15.315984972    12.608836922
16 5 0     1.813188957     0.281614652     0.217939780
17 5 0     4.268889400    13.457250443     1.653140742
18 5 0     4.914152037     2.140349540    11.173636383
19 5 0     6.463581498     5.658450451     4.760247917
20 5 0     2.719459986     9.939149532     8.066529015
21 5 0     6.366689152    13.968680024     0.941716296
22 5 0     2.816352032     1.628919725    11.885060354
23 5 0     4.365781400     6.169880032     5.471672273
24 5 0     4.817259623     9.427719951     7.355105044
25 5 0     1.896052928    14.095394832     2.293273871
26 5 0     7.286988740     1.502204808    10.533503061
27 5 0     8.836418201     6.296595293     4.120114595
28 5 0     0.346623468     9.301005142     8.706662337
29 5 0     0.901013972    10.120720663     6.197552458
30 5 0     8.282027328     5.476878852     6.629224475
31 5 0     9.831456748     2.321921139     0.215836175
32 5 0    -0.648415489    13.275679312    12.610940924
33 5 0     4.993550001     8.762731717     4.776306990
34 5 0     4.189491852     6.834868266     8.050469942
35 5 0     5.738921313     0.963931663     1.637081476
36 5 0     3.444120540    14.633668257    11.189695457
37 5 0     7.136673804     8.234020136     4.229527259
38 5 0     2.046367312     7.363580300     8.597249674
39 5 0     3.595796729     0.435219832     2.183861387
40 5 0     5.587244343    15.162379839    10.642915725
41 5 0    -0.188602939    14.840991790     1.772853038
42 5 0     9.371644386     0.756608380    11.053923895
43 5 0    10.921073847     7.042191799     4.640535428
44 5 0    -1.738032400     8.555408184     8.186241504
45 5 0    -1.255188588     9.556352719     5.737494372
46 5 0    10.438229746     6.041246812     7.089282945
47 5 0    11.987659278     1.757553179     0.675894184
48 5 0    -2.804617956    13.840047256    12.150882454
49 5 0     9.501260499    12.786632006     0.847324070
50 5 0    -0.318219408     2.810968211    11.979452965
51 5 0     1.231210053     4.987831546     5.566064499
52 5 0     7.951831063    10.609767969     7.260712434
53 5 0     9.780055430     9.359979075     2.743519331
54 5 0    -0.597013531     6.237620456    10.083257409
55 5 0     0.952415837     1.561179427     3.669869328
56 5 0     8.230625923    14.036420900     9.156907989
57 3 0     2.469304120     7.825971089     5.243432437
58 3 0     6.713737810     7.771628894     7.583344123
59 3 0     8.263167202     0.027171019     1.169955939
60 3 0     0.919874570    15.570428886    11.656821276
61 3 0     0.618987122     6.658163134     6.315789392
62 3 0     8.564054547     8.939436850     6.510987540
63 3 0    10.113484039    14.456963125     0.097598946
64 3 0    -0.930442339     1.140636858    12.729177858
65 3 0     4.231864701    11.185834207     3.263234691
66 3 0     4.951176783     4.411781108     9.563542241
67 3 0     6.500606244     3.387018883     3.150153775
68 3 0     2.682435240    12.210565768     9.676623158
69 3 0     8.258163146     9.868211445     2.638968336
70 3 0     0.924878753     5.729388539    10.187808404
71 3 0     2.474308121     2.069411687     3.774420322
72 3 0     6.708733639    13.528188530     9.052356995
73 3 0     1.668475076    12.453576344     4.731400470
74 3 0     7.514566224     3.144023873     8.095376462
75 3 0     9.063995685     4.654776353     1.681987996
76 3 0     0.119045615    10.942823631    11.144788936
77 3 0    10.458075960    12.830133104     2.347351576
78 3 0    -1.275034343     2.767466661    10.479425164
79 3 0     0.274395025     5.031333565     4.066037083
80 3 0     8.908646453    10.566266871     8.760740234
81 3 0     8.342345118    11.248864358     6.638473068
82 3 0     0.840696641     4.348735625     6.188304249
83 3 0    -0.708732727     3.450064367    12.601692330
84 3 0     9.891774657    12.147535617     0.225084282
85 3 0     7.069364001    11.011469105     7.542760278
86 3 0     2.113677944     4.586131346     5.284016270
87 3 0     0.564248390     3.212668879    11.697405121
88 3 0     8.618793391    12.384930870     1.129372107
89 3 0     8.232837199    14.740371501     9.830749684
90 3 0     0.950203929     0.857228482     2.996027249
91 3 0    -0.599225532     6.941571510     9.409415715
92 3 0     9.782266660     8.656028473     3.417361217
93 3 0     8.606287247    13.250083104     9.647711487
94 3 0     0.576754605     2.347516879     3.179065445
95 3 0    -0.972674856     5.451283113     9.592453912
96 3 0    10.155716708    10.146316871     3.234323021
97 2 0     5.508484182    13.224237741     1.516766334
98 2 0     3.674556980     2.373362024    11.310010406
99 2 0     5.223986441     5.425438201     4.896621940
100 2 0     3.959054675    10.172162234     7.930154992
101 2 0     6.079524157     8.937705766     4.141060953
102 2 0     3.103517234     6.659894218     8.685716365
103 2 0     4.652946741     1.138905556     2.272327706
104 2 0     4.530094790    14.458694209    10.554449034
105 2 0     0.636349018    14.101119854     2.409176499
106 2 0     8.546692795     1.496480473    10.417600241
107 2 0    10.096122256     6.302319394     4.004211775
108 2 0    -0.913080489     9.295280121     8.822565158
109 2 0    -0.216115619    10.287334959     5.618333486
110 2 0     9.399157017     5.310249691     7.208443446
111 2 0    10.948586490     2.488550300     0.795054929
112 2 0    -1.765545080    13.109065016    12.031721953
113 2 0     5.257072032    11.092545461     2.928725189
114 2 0     3.925969820     4.505054990     9.898051744
115 2 0     5.475399281     3.293745235     3.484663278
116 2 0     3.707642572    12.303854514     9.342113655
117 2 0     5.981446785    11.971376198     2.106887963
118 2 0     3.201594652     3.626223552    10.719889162
119 2 0     4.751024113     4.172576206     4.306500696
120 2 0     4.432017371    11.425023777     8.520276237
121 2 0     0.076633040    13.108332427     3.327317295
122 2 0     9.106408174     2.489267790     9.499459638
123 2 0    10.655837635     5.309532436     3.086071172
124 2 0    -1.472796421    10.288067547     9.740705761
125 2 0     0.666784577    12.354047513     4.333308365
126 2 0     8.516257091     3.243552003     8.493468568
127 2 0    10.065686598     4.555247989     2.080079909
128 2 0    -0.882644884    11.042352462    10.746696831
129 2 0     6.164520030    10.085891706     3.231360061
130 2 0     3.018521903     5.511708277     9.595416487
131 2 0     4.567951271     2.287091714     3.182028405
132 2 0     4.615090477    13.310508269     9.644748912
133 2 0    -0.321269864    11.423245277     4.689931295
134 2 0     9.504311250     4.174354707     8.136845637
135 2 0    11.053740757     3.624445519     1.723456979
136 2 0    -1.870699324    11.973154698    11.103319761
137 4 0     7.247753524    11.530463569     1.912818853
138 4 0     1.935275887     4.067136414    10.913958079
139 4 0     3.484705348     3.731663343     4.500569613
140 4 0     5.698324063    11.865936406     8.326207320
141 4 0     7.329992672    10.388328967     2.588751363
142 4 0     1.853048856     5.209271016    10.238025389
143 4 0     3.402478317     2.589529209     3.824636923
144 4 0     5.780563168    13.008071008     9.002140009
145 4 0    11.098136795    12.622856988     3.145741453
146 4 0    -1.915095215     2.974742996     9.681035287
147 4 0    -0.365665847     4.824056996     3.267647205
148 4 0     9.548707288    10.773542987     9.559130112
149 4 0    10.841060275    11.588845276     3.942527907
150 4 0    -1.658018932     4.008754707     8.884248641
151 4 0    -0.108589564     3.790045285     2.470860559
152 4 0     9.291630722    11.807554698    10.355916758
