# Position data file
 
140 atoms
5 atom types
 
    0.000000000    12.043800354 xlo xhi
    0.000000000    14.964900017 ylo yhi
    0.000000000    13.775348201 zlo zhi
    0.000000000    -2.910204129     0.000000000 xy xz yz
 
Masses
 
1    26.982000000
2    12.011000000
3     1.008000000
4    14.007000000
5    15.999000000
 
Atoms
 
1 1 0     4.566798112     7.482450008     6.887674100
2 1 0     6.021900177     0.000000000     0.000000000
3 1 0     7.593030711     6.480579927     5.991215669
4 1 0     1.540565876     8.484320090     7.784132532
5 1 0     2.995667963    13.963029935     0.896458321
6 1 0     6.137928646     1.001870081    12.878889769
7 1 0    -1.455102064     7.482450008     6.887674100
8 1 0     0.000000000     0.000000000     0.000000000
9 5 0     6.418829804     5.224665733     5.225540490
10 5 0     2.714766421     9.740249443     8.549807711
11 5 0     4.169868506    12.707100582     1.662133514
12 5 0     4.963727739     2.257784500    12.113214590
13 5 0     6.295513810     6.933028849     7.253230529
14 5 0     2.838082415     8.031871602     6.522117671
15 5 0     1.382980350    14.415478423    13.409791772
16 5 0     7.750615880     0.549421324     0.365556401
17 5 0     8.781457250     5.875100222     4.628792406
18 5 0     0.352138613     9.089799795     9.146555795
19 5 0     1.807240678    13.357550230     2.258881694
20 5 0     7.326355186     1.607350011    11.516466506
21 5 0     8.786022553     7.656865514     6.734643840
22 5 0     0.347574033     7.308034054     7.040704361
23 5 0     1.802676080     0.174415910     0.153030343
24 5 0     7.330920489    14.790484511    13.622317940
25 5 0     3.507347522     0.368555558     2.130137180
26 5 0     5.626249052    14.596344699    11.645211021
27 5 0     7.081351117     7.851005327     4.757536920
28 5 0     2.052245457     7.113894256     9.017811280
29 5 0     9.707594515     2.423834821     0.263425970
30 5 0    -0.573998415    12.541065196    13.511921969
31 5 0     0.881103562     9.906284830     6.624248282
32 5 0     8.252492395     5.058615187     7.151100332
33 5 0     4.357782449     6.138946284     5.531353468
34 5 0     4.775813327     8.825953732     8.243995146
35 5 0     6.230915459    13.621396293     1.356320729
36 5 0     2.902680472     1.343503829    12.419027155
37 5 0     5.405334358     1.298160152     1.300751015
38 5 0     3.728261800    13.666739970    12.474597502
39 5 0     5.183363952     8.780610055     5.586922988
40 5 0     3.950232361     6.184289961     8.188424799
41 5 0    11.866310766     1.806682464     0.675956350
42 5 0    -2.732714264    13.158217328    13.099391851
43 5 0    -1.277609252     9.289132697     6.211703796
44 5 0    10.411208702     5.675767769     7.563630450
45 5 0    10.812641360     6.771018527     5.099358548
46 5 0    -1.679045183     8.193881490     8.675989652
47 5 0    -0.223943162    14.253468535     1.788315759
48 5 0     9.357539295     0.711431377    11.987032649
49 5 0     7.883064463    10.008375228     7.898357981
50 5 0     1.250531855     4.956524340     5.876990633
51 5 0    -0.204570122     2.525925444    12.764664320
52 5 0     9.338166615    12.438974797     1.010683467
53 3 0     6.635956867     7.278733034     8.091597918
54 3 0     2.497639084     7.686166983     5.683749870
55 3 0     1.042536932    14.761183042    12.571424383
56 3 0     8.091058864     0.203717184     1.203924134
57 3 0     8.423128059     8.493643028     7.113024636
58 3 0     0.710468431     6.471256540     6.662323165
59 3 0    -0.744633718     1.011193244    13.549997665
60 3 0     9.878230042    13.953706997     0.225350921
61 3 0     0.893574124     3.190696232     2.629438478
62 3 0     8.240022282    11.774203560    11.145909722
63 3 0     9.695124346    10.673146465     4.258235622
64 3 0    -0.561527940     4.291753551     9.517112579
65 3 0     2.543803161     4.376619859     4.768130012
66 3 0     6.589793151    10.588280158     9.007217776
67 3 0     8.044895172    11.859069867     2.119543882
68 3 0     1.088701010     3.105830374    11.655804525
69 3 0     6.290960539     3.193359910     3.203264411
70 3 0     2.842635730    11.771555281    10.572083584
71 3 0     4.297737707    10.675794744     3.684409896
72 3 0     4.835858431     4.289090099    10.090938718
73 3 0     8.956440621     4.546486274     2.041906130
74 3 0     0.177155604    10.418413743    11.733442071
75 3 0     1.632257668    12.028936283     4.845767971
76 3 0     7.501338557     2.935963734     8.929580230
77 3 0     8.487218880    10.085804234     8.707535351
78 3 0     0.646377345     4.879096232     5.067812850
79 3 0    -0.808724720     2.603353777    11.955486950
80 3 0     9.942320945    12.361545791     1.819861251
81 3 0     8.171145356    10.699648899     7.277447316
82 3 0     0.962450772     4.265251118     6.497900485
83 3 0    -0.492651376     3.217199115    13.385574985
84 3 0     9.626247368    11.747701126     0.389773464
85 4 0     0.013682227     3.726768941     2.652222890
86 4 0     9.119914311    11.238131286    11.123124911
87 4 0    10.575016291    11.209218740     4.235451210
88 4 0    -1.441419922     3.755681277     9.539897390
89 4 0     3.268238893     3.936337505     4.170101054
90 4 0     5.865357606    11.028562945     9.605247560
91 4 0     7.320459758    11.418787080     2.717573046
92 4 0     1.813136916     3.546112713    11.057774742
93 4 0     2.980456568     2.890021536     3.385181521
94 4 0     6.153139744    12.074878481    10.390166266
95 4 0     7.608241722    10.372471545     3.502492579
96 4 0     1.525354416     4.592428472    10.272856035
97 4 0    -0.157484412     4.662613734     3.590875117
98 4 0     9.291080902    10.302286283    10.184473084
99 4 0    10.746182966    12.145063742     3.296798983
100 4 0    -1.612586476     2.819836050    10.478549217
101 2 0     5.163203317     5.268018958     5.062096121
102 2 0     3.970392821     9.696881507     8.713252493
103 2 0     5.425494973    12.750468518     1.825577979
104 2 0     3.708101340     2.214431050    11.949769808
105 2 0    10.028581244     6.008572180     4.453487614
106 2 0    -0.894985467     8.956327837     9.321861000
107 2 0     0.560116641    13.491022189     2.434186693
108 2 0     8.573479267     1.473878053    11.341161301
109 2 0     4.365428086     1.299282594     2.038200616
110 2 0     4.768168139    13.665617872    11.737147584
111 2 0     6.223270203     8.781732154     4.849473484
112 2 0     2.910326022     6.183167414     8.925874717
113 2 0     5.231000113     3.282161627     3.403695727
114 2 0     3.902595710    11.682738390    10.371652667
115 2 0     5.357697774    10.764611635     3.483978566
116 2 0     3.775898089     4.200288382    10.291369634
117 2 0    10.823453531     2.521001947     0.855573115
118 2 0    -1.689857507    12.443897621    12.919775182
119 2 0    -0.234755443    10.003452404     6.032101082
120 2 0     9.368351487     4.961448061     7.743247119
121 2 0     9.975341236     4.432049579     2.389168814
122 2 0    -0.841745329    10.532849989    11.386179180
123 2 0     0.613356736    11.914500036     4.498505080
124 2 0     8.520239128     3.050400429     9.276843121
125 2 0     4.601821604     4.200019014     4.232255178
126 2 0     4.531774621    10.764881003     9.543093023
127 2 0     5.986876729    11.682469022     2.655418716
128 2 0     3.146719539     3.282430995    11.119929278
129 2 0    10.932038938     3.556124051     1.894454858
130 2 0    -1.798442573    11.408775517    11.880893136
131 2 0    -0.343340596    11.038574508     4.993219449
132 2 0     9.476936830     3.926325957     8.782129165
133 2 0    10.616498576     5.101040769     3.443465102
134 2 0    -1.482902568     9.863859697    10.331883099
135 2 0    -0.027800504    12.583490328     3.444208998
136 2 0     9.161396512     2.381409464    10.331139202
137 2 0     4.187031681     2.486103770     2.903499058
138 2 0     4.946564227    12.478796247    10.871848936
139 2 0     6.401666204     9.968553779     3.984175249
140 2 0     2.731929573     4.996346238     9.791173365
