# Position data file
 
152 atoms
5 atom types
 
    0.000000000    12.272700310 xlo xhi
    0.000000000    15.499600410 ylo yhi
    0.000000000    13.062396640 zlo zhi
    0.000000000    -3.078673985     0.000000000 xy xz yz
 
Masses
 
1    26.982000000
2    12.011000000
3     1.008000000
4    14.007000000
5    15.999000000
 
Atoms
 
1 1 0    -1.539336992     7.749800205     6.531198320
2 1 0     0.000000000     0.000000000     0.000000000
3 1 0     4.597013163     7.749800205     6.531198320
4 1 0     6.136350155     0.000000000     0.000000000
5 1 0     7.650876957     6.845708529     7.426103061
6 1 0     1.543149369     8.653891882     5.636293578
7 1 0     0.003812376    14.595508734    12.167491898
8 1 0     9.190213927     0.904091676     0.894904833
9 5 0     8.952238978     7.384629806     6.209863376
10 5 0     0.241787071     8.114970605     6.852533656
11 5 0     1.781124155    15.134430011     0.321334944
12 5 0     7.412902078     0.365170601    12.741061304
13 5 0    -1.177254423    13.294937434    11.446577875
14 5 0    10.371280819     2.204663209     1.615818464
15 5 0     8.831943756     5.545137229     8.147017085
16 5 0     0.362082477     9.954463182     4.915379947
17 5 0     6.383387902     8.023832970     6.809427603
18 5 0     2.810638331     7.475767440     6.252969428
19 5 0     1.271301431     0.274032951    12.784167356
20 5 0     7.922724952    15.225567646     0.278229035
21 5 0     1.171927950    13.926080946    10.831339672
22 5 0     8.022098286     1.573519465     2.231057346
23 5 0     6.482761383     6.176280741     8.762255287
24 5 0     2.711265031     9.323319670     4.300140974
25 5 0     8.227710975     8.171389088     8.664287404
26 5 0     0.966315258     7.328210873     4.398108844
27 5 0    -0.573021826     0.421589131    10.929307556
28 5 0     9.767047921    15.078011527     2.133089280
29 5 0     2.155392195     9.986237083     6.872126611
30 5 0     7.038633866     5.513362862     6.190269637
31 5 0     5.499296782     2.236437343    12.721468349
32 5 0     3.694729126    13.263163532     0.340928552
33 5 0     9.011720477    13.927011263    11.987361305
34 5 0     0.182306004     1.572589489     1.075035243
35 5 0    -1.357031010     6.177210593     7.606233655
36 5 0    10.551057470     9.322389353     5.456162985
37 5 0    10.290631794     8.809973261     8.050354879
38 5 0    -1.096605616     6.689627599     5.012041760
39 5 0    -2.635942608     1.060172715    11.543240080
40 5 0    11.829968740    14.439427355     1.519156755
41 5 0     4.256041635     9.386557993     7.415522938
42 5 0     4.937984601     6.113042417     5.646874080
43 5 0     3.398647698     1.636757788    12.178072021
44 5 0     5.795378717    13.862842623     0.884324239
45 5 0     3.239998129    14.529325161    11.445272197
46 5 0     5.954028128     0.970275017     1.617124730
47 5 0     4.414691204     6.779525421     8.148322763
48 5 0     4.779335211     8.720075454     4.914073498
49 5 0     7.440431535    10.549694863     5.859869690
50 5 0     1.753594791     4.949906012     7.202526950
51 5 0     3.292931737     2.799894425     0.671328826
52 5 0     5.901094542    12.699705753    12.391068010
53 5 0     7.086457820    14.155150021     3.777501566
54 5 0     2.107568413     1.344450839     9.284895466
55 5 0     3.646905451     6.405349366     2.753696950
56 5 0     5.547120920     9.094250595    10.308699494
57 3 0     8.670460412     7.482106421     5.328438962
58 3 0     0.523565634     8.017493525     7.733957299
59 3 0     2.062902537    15.231907091     1.202759358
60 3 0     7.131123330     0.267693614    11.859637661
61 3 0     6.693773787     8.877877026     6.610578400
62 3 0     2.500252182     6.621723834     6.451818240
63 3 0     0.960915190     1.128076371    12.983016560
64 3 0     8.233110755    14.371523590     0.079380184
65 3 0    -1.307526915    11.036955491     9.798456626
66 3 0    10.501553381     4.462644919     3.263940196
67 3 0     8.962216432     3.287155286     9.795138333
68 3 0     0.231810166    12.212445124     3.267257928
69 3 0     7.182318204    10.106607120     9.929537502
70 3 0     2.011708121     5.392992826     3.132859138
71 3 0     0.472371129     2.356807147     9.664057457
72 3 0     8.721655196    13.142793496     3.398339182
73 3 0     1.453368244    12.089238894     8.656045358
74 3 0     7.740658081     3.410361517     4.406351282
75 3 0     6.201321088     4.339438689    10.937549602
76 3 0     2.992705237    11.160161722     2.124847038
77 3 0     4.835722148    12.856530834    10.437991187
78 3 0     4.358304223     2.643069345     2.624405257
79 3 0     2.818967185     5.106730628     9.155603773
80 3 0     6.375059141    10.392869782     3.906792867
81 3 0     7.101042020    11.353549942     6.288420485
82 3 0     2.092984766     4.146050004     6.773975763
83 3 0     3.632321696     3.603750202     0.242777704
84 3 0     5.561704936    11.895850674    12.819619197
85 3 0     8.267337075    10.844233367     5.388277853
86 3 0     0.926689066     4.655367044     7.674118786
87 3 0     2.466026037     3.094433162     1.142920558
88 3 0     6.728000082    12.405167249    11.919476173
89 3 0     6.652139648    13.473384256     3.212160961
90 3 0     2.541886588     2.026216154     9.850236058
91 3 0     4.081223669     5.723584051     3.319037359
92 3 0     5.112802745     9.776016360     9.743358902
93 3 0     7.369706607    14.843471419     3.150532508
94 3 0     1.824319810     0.656129100     9.911863740
95 3 0     3.363656710     7.093671214     3.380665812
96 3 0     5.830369523     8.405929197     9.681731220
97 2 0    -2.413743622    13.149860942    11.464865152
98 2 0    11.607769720     2.349739469     1.597531096
99 2 0    10.068432636     5.400060737     8.128729808
100 2 0    -0.874406722    10.099539674     4.933667224
101 2 0     2.420116252    13.869042556    10.763414844
102 2 0     6.773909705     1.630557963     2.298981796
103 2 0     5.234572713     6.119242351     8.830180115
104 2 0     3.959453244     9.380358060     4.232216524
105 2 0     9.215334699     8.949469727     8.691719090
106 2 0    -0.021308380     6.550131149     4.370677942
107 2 0    -1.560645280     1.199669056    10.901875870
108 2 0    10.754671784    14.299930889     2.160520378
109 2 0     3.235489106    10.113488865     7.512184373
110 2 0     5.958537587     5.386111081     5.550212267
111 2 0     4.419200595     2.363689125    12.081410587
112 2 0     4.774826123    13.135911751     0.980985948
113 2 0    -2.218646626    11.037265902     9.986202518
114 2 0    11.412673175     4.462334974     3.076194317
115 2 0     9.873336228     3.287465232     9.607392441
116 2 0    -0.679309541    12.212134714     3.455003807
117 2 0     9.350817767    11.953291852    10.762108382
118 2 0    -0.156791714     3.546308558     2.300288061
119 2 0    -1.696128753     4.203491647     8.831486577
120 2 0    10.890154667    11.296108764     4.230910454
121 2 0     2.346431521    12.064889022     8.915085772
122 2 0     6.847594804     3.434711389     4.147310868
123 2 0     5.308257812     4.315088816    10.678509188
124 2 0     3.885768513    11.184511594     2.383887452
125 2 0     3.317871363    11.217060616     8.464433049
126 2 0     5.876154962     4.282539795     4.597963591
127 2 0     4.336817970     3.467260643    11.129161911
128 2 0     4.857208356    12.032340000     1.933234729
129 2 0     9.106945545    10.130538472     9.557755660
130 2 0     0.087080682     5.369061474     3.504640979
131 2 0    -1.452256310     2.380738732    10.035839299
132 2 0    10.646282537    13.118862144     3.026557341
133 2 0     2.969145528    12.870868026     9.834678482
134 2 0     6.224880429     2.628732152     3.227718157
135 2 0     4.685543437     5.121067821     9.758916477
136 2 0     4.508482520    10.378532590     3.303480162
137 4 0     8.047128696    11.627799825    10.789539298
138 4 0     1.146897905     3.871800136     2.272856950
139 4 0    -0.392439179     3.878000069     8.804055662
140 4 0     9.586465596    11.621600791     4.258341370
141 4 0     7.924373912    10.519578334    10.060658075
142 4 0     1.269652735     4.980021612     3.001738761
143 4 0    -0.269684211     2.769778593     9.532936885
144 4 0     9.463710904    12.729822282     3.529459755
145 4 0     4.474067237    11.474354184     9.094040710
146 4 0     4.719959088     4.025246227     3.968355929
147 4 0     3.180622096     3.724553979    10.499554249
148 4 0     6.013404276    11.775046432     2.562842195
149 4 0     4.247889753    12.495778269     9.923502727
150 4 0     4.946136572     3.003822591     3.138893913
151 4 0     3.406799580     4.745977615     9.670092232
152 4 0     5.787226745    10.753622346     3.392304407
