# Position data file
 
140 atoms
5 atom types
 
    0.000000000    12.043800354 xlo xhi
    0.000000000    14.964900017 ylo yhi
    0.000000000    13.775348201 zlo zhi
    0.000000000    -2.910204129     0.000000000 xy xz yz
 
Masses
 
1    26.982000000
2    12.011000000
3     1.008000000
4    14.007000000
5    15.999000000
 
Atoms
 
1 1 0     4.566798112     7.482450008     6.887674100
2 1 0     6.021900177     0.000000000     0.000000000
3 1 0     7.588393528     6.488032402     5.992414028
4 1 0     1.545203134     8.476867615     7.782933760
5 1 0     3.000305155    13.970482411     0.895259866
6 1 0     6.133291376     0.994417606    12.880088542
7 1 0    -1.455102064     7.482450008     6.887674100
8 1 0     0.000000000     0.000000000     0.000000000
9 5 0     6.397135539     5.221104072     5.254744476
10 5 0     2.736460686     9.743795945     8.520603725
11 5 0     4.191562730    12.703554080     1.632929721
12 5 0     4.942033475     2.261345937    12.142418577
13 5 0     6.305526395     7.026319901     7.212221139
14 5 0     2.828069830     7.938580565     6.563127062
15 5 0     1.372967765    14.508769460    13.450801162
16 5 0     7.760628422     0.456130138     0.324547217
17 5 0     8.791874121     5.820298459     4.700286670
18 5 0     0.341721924     9.144601109     9.075061531
19 5 0     1.796823945    13.302748916     2.187387637
20 5 0     7.336772056     1.662151445    11.587960770
21 5 0     8.801858548     7.709617071     6.629524103
22 5 0     0.331737316     7.255282946     7.145824098
23 5 0     1.786839375     0.227167182     0.258150025
24 5 0     7.346756483    14.737732954    13.517198203
25 5 0     3.539596632     0.338356374     2.142755454
26 5 0     5.593999232    14.626543493    11.632592747
27 5 0     7.049101296     7.820806532     4.744918646
28 5 0     2.084494568     7.144093484     9.030429554
29 5 0     9.662358037     2.303247702     0.375791485
30 5 0    -0.528761887    12.661652540    13.399557074
31 5 0     0.926340264     9.785697486     6.511882560
32 5 0     8.207256048     5.179202082     7.263465227
33 5 0     4.335433285     6.004217095     5.676820814
34 5 0     4.798162666     8.960682473     8.098526973
35 5 0     6.253264687    13.486667552     1.210853079
36 5 0     2.880331133     1.478232809    12.564495328
37 5 0     5.501156097     1.149005008     1.445034054
38 5 0     3.632439778    13.815894679    12.330314147
39 5 0     5.087541843     8.631455346     5.442640047
40 5 0     4.046054033     6.333445120     8.332708154
41 5 0    11.756144746     1.660654925     0.853658314
42 5 0    -2.622548533    13.304244763    12.921689942
43 5 0    -1.167446468     9.143105263     6.034015841
44 5 0    10.301042693     5.821795203     7.741332359
45 5 0    10.825748067     6.565400756     5.240555895
46 5 0    -1.692151820     8.399499261     8.534792719
47 5 0    -0.237049712    14.047850764     1.647118412
48 5 0     9.370646089     0.917049088    12.128229582
49 5 0     7.919543760    10.170026527     7.668846243
50 5 0     1.214052733     4.794873490     6.106501544
51 5 0    -0.241049419     2.687576294    12.994176058
52 5 0     9.374645758    12.277323498     0.781172460
53 3 0     6.579648833     7.069897465     8.099766796
54 3 0     2.553947392     7.895002118     5.675581405
55 3 0     1.098845328    14.552347908    12.563255505
56 3 0     8.034750854     0.412552349     1.212092902
57 3 0     8.461480207     8.547381999     6.846940589
58 3 0     0.672116018     6.417518018     6.928407612
59 3 0     2.127218042     1.064932215     0.040733705
60 3 0     7.006378143    13.899968026    13.734614689
61 3 0     0.720459647     3.222167432     2.500583926
62 3 0     8.413136662    11.742732809    11.274764274
63 3 0     9.868238727    10.704617216     4.387090174
64 3 0    -0.734642418     4.260282352     9.388258027
65 3 0     2.666963991     4.397061762     4.471450668
66 3 0     6.466632234    10.567838703     9.303897533
67 3 0     7.921734255    11.879511322     2.416223639
68 3 0     1.211861926     3.085388246    11.359124768
69 3 0     6.200756875     3.067714609     3.498663088
70 3 0     2.932839263    11.897184959    10.276685526
71 3 0     4.387941371    10.550165067     3.389011219
72 3 0     4.745654897     4.414735399    10.386336775
73 3 0     9.028205448     4.292517076     2.368244129
74 3 0     0.105390733    10.672382941    11.407104279
75 3 0     1.560492798    11.774967084     4.519430178
76 3 0     7.573103427     3.189933157     9.255918022
77 3 0     8.471144615    10.224393455     8.494072335
78 3 0     0.662451336     4.740506113     5.281275452
79 3 0    -0.792650816     2.741943895    12.168949966
80 3 0     9.926246636    12.222956570     1.606398441
81 3 0     8.081450145    10.994996046     7.182439111
82 3 0     1.052146261     3.969903522     6.592909089
83 3 0    -0.402955803     3.512546262    13.480583190
84 3 0     9.536552232    11.452353979     0.294764901
85 4 0    -0.013515314     3.633477679     2.680682774
86 4 0     9.147111628    11.331422338    11.094665634
87 4 0    10.602213693    11.115927688     4.206991533
88 4 0    -1.468617335     3.848972329     9.568356667
89 4 0     3.289276237     3.908832049     4.132604626
90 4 0     5.844319988    11.056067968     9.642743575
91 4 0     7.299422009    11.391282057     2.755069681
92 4 0     1.834174173     3.573618184    11.020278726
93 4 0     3.075487025     2.846323998     3.348787175
94 4 0     6.058108797    12.118576468    10.426561218
95 4 0     7.513210862    10.328773558     3.538887118
96 4 0     1.620385002     4.636126010    10.236461083
97 4 0    -0.143963901     4.561301585     3.617406506
98 4 0     9.277559861    10.403598881    10.157941694
99 4 0    10.732661925    12.043751144     3.270267594
100 4 0    -1.599065965     2.921148423    10.505080607
101 2 0     5.150603826     5.194316646     5.156112873
102 2 0     3.982992760     9.770582937     8.619235328
103 2 0     5.438094825    12.676767089     1.731561228
104 2 0     3.695501762     2.288133138    12.043786973
105 2 0    10.037690888     5.857262001     4.581680784
106 2 0    -0.904094663     9.107638450     9.193667417
107 2 0     0.551007401    13.339711576     2.305993316
108 2 0     8.582588824     1.625188112    11.469354884
109 2 0     4.452571917     1.198688491     2.137934110
110 2 0     4.681024669    13.766211525    11.637414091
111 2 0     6.136126734     8.681138500     4.749739991
112 2 0     2.997469853     6.283761517     9.025608210
113 2 0     5.280362226     3.162083389     3.589855755
114 2 0     3.853233911    11.802816419    10.185492859
115 2 0     5.308336063    10.644533606     3.297818345
116 2 0     3.825260249     4.320366844    10.477529442
117 2 0    10.750775514     2.380915533     1.012488093
118 2 0    -1.617179714    12.583984484    12.762860411
119 2 0    -0.162077565     9.863365541     5.875185911
120 2 0     9.295673513     5.101534476     7.900161890
121 2 0     9.926250651     4.221598175     2.600785837
122 2 0    -0.792654862    10.743301393    11.174562777
123 2 0     0.662447289    11.704048632     4.286888264
124 2 0     8.471148674     3.260851609     9.488459524
125 2 0     4.606451554     4.110857825     4.322704362
126 2 0     4.527144584    10.854042192     9.452644252
127 2 0     5.982246736    11.593307834     2.564969739
128 2 0     3.151349577     3.371591959    11.210378049
129 2 0    10.862219527     3.417983269     2.047016701
130 2 0    -1.728623478    11.546916973    11.728331706
131 2 0    -0.273521326    10.900433053     4.840657192
132 2 0     9.407117506     4.064466964     8.934690595
133 2 0    10.605589236     4.920459021     3.598121102
134 2 0    -1.471992831    10.044440547    10.177227099
135 2 0    -0.016890810    12.402909478     3.289553205
136 2 0     9.150487172     2.561990988    10.485795202
137 2 0     4.293688027     2.376426212     3.015423652
138 2 0     4.839908285    12.588473804    10.759924135
139 2 0     6.295010262     9.858876221     3.872250448
140 2 0     2.838585875     5.106023796     9.903098166
