# Position data file
 
248 atoms
5 atom types
 
    0.000000000    12.315999985 xlo xhi
    0.000000000    14.892999649 ylo yhi
    0.000000000    13.618223458 zlo zhi
    0.000000000    -2.963775719     0.000000000 xy xz yz
 
Masses
 
1    26.982000000
2    12.011000000
3     1.008000000
4    14.007000000
5    15.999000000
 
Atoms
 
1 1 0     7.752521585     6.542941715     7.627430844
2 1 0     1.599702496     8.350058381     5.990792613
3 1 0     0.117814637    13.989441092    12.799904342
4 1 0     9.234409453     0.903558289     0.818319075
5 1 0    -1.481887860     7.446499825     6.809111729
6 1 0     0.000000000     0.000000000     0.000000000
7 1 0     4.676112133     7.446499825     6.809111729
8 1 0     6.157999992     0.000000000     0.000000000
9 5 0     6.473718044     7.716509968     7.033948734
10 5 0     2.878506222     7.176489681     6.584274723
11 5 0     1.396618362     0.270010099    13.393386452
12 5 0     7.955605933    14.622989506     0.224836869
13 5 0     9.053893370     7.119151871     6.463072712
14 5 0     0.298331080     7.773847778     7.155150746
15 5 0     1.780218930    14.565651695     0.346039058
16 5 0     7.572005511     0.327348147    13.272184440
17 5 0     2.808815811     9.067752005     4.675953302
18 5 0     6.543408454     5.825248091     8.942270156
19 5 0     8.025296314     1.621251957     2.133158427
20 5 0     1.326927952    13.271747469    11.485065031
21 5 0    -1.039369497    12.660390474    12.068061490
22 5 0    10.391593674     2.232609622     1.550162376
23 5 0     8.909705903     5.213890202     8.359273696
24 5 0     0.442518452     9.679109000     5.258949353
25 5 0     3.673170372    12.636859534     0.402146139
26 5 0     5.679053861     2.256140562    13.216077469
27 5 0     7.160941720     5.190359263     6.406965740
28 5 0     2.191282545     9.702639939     7.211257718
29 5 0     4.838889572     8.193383414     5.068566575
30 5 0     4.513334324     6.699615788     8.549656883
31 5 0     5.995222183     0.746883932     1.740545154
32 5 0     3.357001713    14.146116059    11.877678304
33 5 0     8.304245571     7.774146040     8.977269440
34 5 0     1.047978421     7.118853609     4.640954427
35 5 0    -0.433909349     0.327645992    11.450065747
36 5 0     9.786133519    14.565353433     2.168157302
37 5 0     5.846057748    13.126689727     0.723127679
38 5 0     3.506166485     1.766309803    12.895095928
39 5 0     4.988054344     5.680189902     6.085984199
40 5 0     4.364169921     9.212809747     7.532239258
41 5 0     9.188613177    13.253131681    12.647380089
42 5 0     0.163611478     1.639868191     0.970843164
43 5 0    -1.318276426     5.806631410     7.779955097
44 5 0    10.670500948     9.086367792     5.838268769
45 5 0    10.392194476     8.397120260     8.415245126
46 5 0    -1.039970125     6.495879836     5.202978332
47 5 0    -2.521857984     0.950620212    12.012090060
48 5 0    11.874082360    13.942379213     1.606133288
49 5 0     7.763713393    10.028558701     6.700097945
50 5 0     1.856290336     4.790348409     7.338628717
51 5 0     3.389977279     2.480994936     1.158475060
52 5 0     5.965544072    12.336571982    12.498982567
53 5 0     6.957748981    13.453248515     3.802793464
54 5 0     2.567013941     1.541633981     9.676087895
55 5 0     4.012912326     6.303447298     2.201535609
56 5 0     5.475019116     8.529325105    11.068443020
57 5 0     8.922034318    14.064099536     8.891283446
58 5 0     0.342058572     1.039442003     5.032805093
59 5 0    -0.524593476     6.167176381    11.945184110
60 5 0    10.067016571     8.606515254     1.762211706
61 5 0    -0.748682592    13.303544604     8.870610833
62 5 0     9.911299201     1.563660727     4.835340962
63 5 0     9.024001168     5.936319666    11.948751567
64 5 0     0.630646417     8.971960276     2.047254823
65 5 0     8.197296728     7.739564227     3.908089622
66 5 0     1.373506139     7.124855741    10.097354510
67 5 0     1.784758694    14.386280229     3.276326686
68 5 0     6.896609538     0.196081233    10.428045721
69 5 0     7.011012783    12.268465595     8.000134507
70 5 0     2.384201987     2.668542496     5.797332226
71 5 0     0.712538625     3.639878990    12.292584350
72 5 0     8.673636378    11.009799189     1.324699041
73 5 0     2.538531657    12.782721528     5.325828516
74 5 0     6.550579238     2.220561200     8.483758258
75 5 0     8.536552957     5.339483077     0.976807919
76 5 0     0.745864816     9.962582772    12.421331198
77 5 0     8.189021775     0.729891005     6.812598021
78 5 0     1.209744218    14.315523185     7.082524665
79 5 0     2.661434560     7.948453231     0.490092612
80 5 0     6.974528295     7.122458087    13.066889354
81 5 0     5.961542975    14.110967895     6.271001179
82 5 0     4.151499569     1.094188625     7.344007915
83 5 0     6.040235179     6.062329753     0.181313027
84 5 0     3.017670127     8.109044700    12.165731225
85 5 0     1.147970524    11.470126945     1.174953070
86 5 0     8.176024062     3.332219388    12.335359817
87 5 0     9.655212156     4.082916062     5.602373848
88 5 0    -0.297231402    10.776157780     8.113220234
89 3 0     6.784105569     8.576283120     6.814831029
90 3 0     2.568118785     6.316716960     6.803392020
91 3 0     1.086230837     1.129782968    13.612504158
92 3 0     8.265993352    13.763216353     0.005719654
93 3 0     8.775200705     7.265550028     5.577343567
94 3 0     0.577023746     7.627449621     8.040879891
95 3 0     2.058911584    14.712049852     1.231768257
96 3 0     7.293312845     0.180949946    12.386455296
97 3 0     7.381817884     9.411184040    10.641415706
98 3 0     1.970406611     5.481815162     2.976807547
99 3 0     0.488518707     1.964684439     9.785919480
100 3 0     8.863705655    12.928315433     3.832304386
101 3 0     6.859895370    11.063414002     1.958572939
102 3 0     2.492328851     3.829586094    11.659650723
103 3 0     3.974216710     3.616913954     4.850538995
104 3 0     5.378007555    11.276085471     8.767684463
105 3 0    -1.200527405    10.543201659    10.226332691
106 3 0    10.552751442     4.349798422     3.391890971
107 3 0     9.070863627     3.096701402    10.201002496
108 3 0     0.281360454    11.796297815     3.417220962
109 3 0     2.971568345    10.814700476     2.488458027
110 3 0     6.380655965     4.078299173    11.129765226
111 3 0     7.862543736     3.368200875     4.320653906
112 3 0     1.489680441    11.524798997     9.297569960
113 3 0     8.378506831    10.258297816     5.973797043
114 3 0     2.022364044     3.985813660     6.774058462
115 3 0     3.875492234     2.346049556     2.008497318
116 3 0     6.827391992    11.929322892    12.221974570
117 3 0     6.400700560    13.653217104     4.596232072
118 3 0     2.819699027     1.327234283    10.595413701
119 3 0     4.486683505     6.763953487     2.917976686
120 3 0     4.585444476     8.463319003    11.522365508
121 3 0     8.827055729    14.652820393     8.089946091
122 3 0     0.766883150     0.538664904     4.282372876
123 3 0     0.087292962     6.512723788    11.238806205
124 3 0    11.027735315     8.738705907     1.930982322
125 3 0    -0.645042073    12.349796817     8.584029537
126 3 0     9.874093936     2.545213670     5.054567014
127 3 0     8.831315122     4.980368191    12.091879477
128 3 0     0.969680056     8.906848066     2.962331321
129 3 0     8.844551756     7.965461409     3.201045106
130 3 0     1.917123556     6.333009664     9.865381773
131 3 0     2.154483118    13.757051321     3.969344459
132 3 0     7.703005072    14.675636736    10.005853762
133 3 0     6.563981835    12.893525014     7.363986516
134 3 0     1.581089443     2.163997468     5.505657048
135 3 0     0.716611187     3.373681484    13.243381748
136 3 0     8.743786190    11.313124421     0.391414979
137 3 0     2.032349053    13.241753251     6.064426415
138 3 0     6.650836866     1.621043455     9.274078279
139 3 0     9.100455680     5.914010190     0.386444327
140 3 0     0.394893650    10.876432347    12.430510017
141 3 0     8.799198245     1.041705724     6.088217615
142 3 0     0.503116360    14.009145186     7.698558512
143 3 0     1.858654822     8.255070904     0.996853984
144 3 0     7.824256791     6.747720251    12.667140336
145 3 0     6.728096646    14.734627416     6.384441212
146 3 0     3.546951476     0.929650824     8.105457860
147 3 0     5.393321065     6.034732741     0.925780408
148 3 0     2.562315039     8.864164297    12.584764015
149 3 0     2.016907811    11.862244449     0.936280072
150 3 0     8.737734134     2.531005718    12.269760712
151 3 0    10.231346402     4.867881201     5.476609214
152 3 0     0.546095464    10.464030189     7.717420201
153 3 0     7.503896556    10.893618958     7.112975135
154 3 0     1.027874508     4.580729275     7.820973213
155 3 0     2.531487761     2.905237118     1.411052237
156 3 0     5.436008314    12.389784685    11.670422915
157 3 0     6.488339999    13.820733460     3.035352290
158 3 0     2.760340191     2.492135019     9.574441598
159 3 0     3.597097817     7.014900888     1.640900626
160 3 0     5.302803063     8.187932993    10.171655142
161 3 0     9.876955777    13.789681988     8.931062072
162 3 0    -0.621263958     1.184559451     4.855345941
163 3 0    -0.413607842     6.760989929    12.730124933
164 3 0    10.035491704     8.067835368     0.923465310
165 3 0    -0.343659454    13.372885770     9.757334325
166 3 0     9.496765065     1.464503091     3.954459741
167 3 0    -2.307787280     6.033705229    11.912404855
168 3 0     0.773535969     9.919839521     1.772793161
169 3 0     7.494870888     8.420695581     3.841006308
170 3 0     1.961394090     7.555144436    10.775215446
171 3 0     1.055395071    13.896672836     2.849000466
172 3 0     6.191388646    14.417317493    10.329436015
173 3 0     7.781086536    12.782840479     8.351715882
174 3 0     2.955306372     2.030749801     6.292164062
175 3 0     0.253426417     4.514946851    12.261385491
176 3 0     9.194475784    10.171412309     1.407225530
177 3 0     2.220846493    11.862974132     5.307974971
178 3 0     6.740223444     3.130121219     8.781752197
179 3 0     8.890458158     4.436356387     0.909329594
180 3 0     0.542642122     9.620535532    11.532728608
181 3 0     7.782345988     1.506948184     7.267255921
182 3 0     0.762865378     0.022860754     6.430170893
183 3 0     3.011547175     8.747403508     0.027154738
184 3 0     6.475879486     7.538329777    12.322150058
185 3 0     5.163154629    14.619906551     6.558386467
186 3 0     4.897140062     1.616679791     7.726762166
187 3 0     6.923512423     5.766524606     0.540670680
188 3 0     3.035507711     7.345406351    12.849270062
189 3 0     0.515915850    12.216817015     1.197804408
190 3 0     7.318731084     3.017336637    12.690073560
191 3 0     8.788470247     4.441330560     5.901865791
192 3 0    -0.890507216     9.991624509     8.131564063
193 4 0     8.118828495     9.864676565    10.731296280
194 4 0     1.233395771     5.028323531     2.886927177
195 4 0    -0.248492089     2.418176293     9.696038906
196 4 0     9.600716355    12.474822909     3.922184552
197 4 0     8.246053302    10.927440901    11.524694306
198 4 0     1.106170690     3.965559195     2.093529560
199 4 0    -0.375717081     3.480940853     8.902640880
200 4 0     9.727941251    11.412058573     4.715582169
201 4 0     5.914899302     9.854102386     3.182578917
202 4 0     3.437324505     5.038897710    10.435644949
203 4 0     4.919212453     2.407602338     3.626532811
204 4 0     4.433011532    12.485397087     9.991690238
205 4 0     6.084807407    10.806062343     2.259263367
206 4 0     3.267416814     4.086936859    11.358960295
207 4 0     4.749304674     3.359562965     4.549848566
208 4 0     4.602919592    11.533437131     9.068374891
209 2 0     4.034744641     8.937140561     4.449618292
210 2 0     5.317480080     5.955859534     9.168604771
211 2 0     6.799367853     1.490640290     2.359493437
212 2 0     2.552856696    13.402358912    11.258730415
213 2 0     4.808190513    12.446675080     0.905339536
214 2 0     4.544033317     2.446324122    12.712884221
215 2 0     6.025921266     5.000175702     5.903772084
216 2 0     3.326302719     9.892824394     7.714450966
217 2 0    -2.282169103    12.495673898    12.105374959
218 2 0    11.634393500     2.397326183     1.512848403
219 2 0    10.152505620     5.049173641     8.321960227
220 2 0    -0.800281244     9.843825576     5.296263230
221 2 0     9.331224472     8.490648372     9.083899639
222 2 0     0.020999510     6.402351723     4.534323819
223 2 0    -1.460888349     1.044148220    11.343435547
224 2 0    10.813112287    13.848851101     2.274788114
225 2 0     9.525160969    11.310935373    11.386196388
226 2 0    -0.172936450     3.582064276     2.232026866
227 2 0    -1.654824354     3.864435549     9.041138799
228 2 0    11.007048740    11.028564100     4.577085068
229 2 0    -2.100719551    10.486607753    10.490117134
230 2 0    11.452943757     4.406391896     3.128105915
231 2 0     9.971055809     3.040107929     9.937218052
232 2 0    -0.618831780    11.852891720     3.681005814
233 2 0     9.268299537     9.572773265    10.082115473
234 2 0     0.083924815     5.320226384     3.536107985
235 2 0    -1.397963045     2.126273664    10.345219714
236 2 0    10.750187396    12.766726208     3.273003744
237 2 0     3.899167070    10.680216913     2.552599710
238 2 0     5.453057151     4.212782736    11.065623952
239 2 0     6.934945100     3.233717088     4.256511815
240 2 0     2.417279255    11.659282561     9.361711234
241 2 0     4.585926956     9.788572964     3.380996406
242 2 0     4.766297220     5.104426685    10.237227460
243 2 0     6.248185169     2.342073140     3.428115323
244 2 0     3.104039185    12.550926509    10.190107726
245 2 0     4.904483725    11.317934815     1.849354800
246 2 0     4.447740898     3.575064610    11.768868658
247 2 0     5.929628757     3.871435437     4.959756929
248 2 0     3.422595865    11.021564658     8.658466529
