# Position data file
 
140 atoms
5 atom types
 
    0.000000000    12.272700310 xlo xhi
    0.000000000    15.499600410 ylo yhi
    0.000000000    13.062396640 zlo zhi
    0.000000000    -3.078673985     0.000000000 xy xz yz
 
Masses
 
1    26.982000000
2    12.011000000
3     1.008000000
4    14.007000000
5    15.999000000
 
Atoms
 
1 1 0    10.732921763     7.750420112     6.531302649
2 1 0     9.193553899     0.000061998    13.062005016
3 1 0     4.596651859     7.750001607     6.530440766
4 1 0     3.057125020     0.000356491    13.060985849
5 1 0     7.640580314     6.784050901     7.398920514
6 1 0     1.552243817     8.715998502     5.662640315
7 1 0     0.013110125    14.533695894    12.192663372
8 1 0     9.179665152     0.965718134     0.868584078
9 5 0     8.960515920     7.315795739     6.192346506
10 5 0     0.232538116     8.184672168     6.869958266
11 5 0     1.771575408    15.065115534     0.337375580
12 5 0     7.421264275     0.434298804    12.724067243
13 5 0    -1.216420601    13.269734851    11.455395293
14 5 0    10.408990074     2.229881028     1.606622563
15 5 0     8.871038079     5.519206196     8.135796199
16 5 0     0.321435886     9.980471356     4.926156267
17 5 0     6.422546167     7.974622359     6.696137281
18 5 0     2.770603211     7.525908369     6.365867735
19 5 0     1.231008983     0.223938227    12.896073365
20 5 0     7.961671617    15.275584779     0.164638447
21 5 0     1.168025585    13.910131640    10.823528189
22 5 0     8.025742717     1.588988035     2.239129855
23 5 0     6.487385362     6.160300482     8.769191642
24 5 0     2.705478471     9.339315180     4.292564614
25 5 0     8.151825111     8.151751761     8.680602533
26 5 0     1.041050231     7.347058759     4.382198963
27 5 0    -0.499509700     0.401656645    10.912077588
28 5 0     9.691367978    15.097137957     2.148999357
29 5 0     2.202362412    10.099089767     6.834624771
30 5 0     6.990689282     5.400944400     6.226387164
31 5 0     5.451866303     2.349801374    12.759361813
32 5 0     3.740914390    13.150263730     0.302903929
33 5 0     8.949166360    13.936992525    11.998921643
34 5 0     0.243366013     1.562545763     1.063253001
35 5 0    -1.294511851     6.186153909     7.592322006
36 5 0    10.486877235     9.314732504     5.470975847
37 5 0    10.256094152     8.794132049     8.091240429
38 5 0    -1.063396953     6.706041614     4.971639715
39 5 0    -2.602405857     1.046408992    11.503216427
40 5 0    11.794947961    14.453393161     1.558448444
41 5 0     4.367543995     9.506230516     7.222421215
42 5 0     4.825443292     5.993710792     5.838185863
43 5 0     3.286498037     1.757236135    12.370847524
44 5 0     5.906514545    13.742689689     0.689028360
45 5 0     3.239107327    14.728139140    11.297836495
46 5 0     5.955126193     0.772112579     1.762169517
47 5 0     4.415900344     6.976834916     8.293315287
48 5 0     4.777170747     8.522765495     4.766886544
49 5 0     5.856494214    12.785790843    12.278652815
50 5 0     3.335256091     2.712492148     0.783456439
51 5 0     1.798048576     5.034394241     7.310461429
52 5 0     7.393447302    10.467282992     5.750641603
53 3 0     8.623872555     7.651935589     5.348803095
54 3 0     0.569884051     7.848951289     7.713331944
55 3 0     2.108453511    15.395939098     1.182786953
56 3 0     7.084892590     0.102405860    11.878800066
57 3 0     6.776037680     8.845203295     6.412709424
58 3 0     2.416458688     6.655435527     6.648785623
59 3 0     3.954913746     1.093140349     0.119403368
60 3 0     5.237805978    14.405917529    12.942340453
61 3 0    -1.222821398    10.995587414     9.830014802
62 3 0    10.414744182     4.503904902     3.230840057
63 3 0     8.876713459     3.248731746     9.763370728
64 3 0     0.314779725    12.250605606     3.297798098
65 3 0     6.905773268    10.172264078     9.839628700
66 3 0     2.286528799     5.326654520     3.223159381
67 3 0     0.747140412     2.419208693     9.749524470
68 3 0     8.444806989    13.080593569     3.311591793
69 3 0     1.421319494    12.258169147     8.386907555
70 3 0     7.771993549     3.242330395     4.673620888
71 3 0     6.232988384     4.509965354    11.207784424
72 3 0     2.959983500    10.990193073     1.853201425
73 3 0     4.922802895    12.791680381    10.689677916
74 3 0     4.270331326     2.707780300     2.371556497
75 3 0     2.733982004     5.038889218     8.899867649
76 3 0     6.458465338    10.460742145     4.161314018
77 3 0     6.694837959    12.420449545    11.867879706
78 3 0     2.496895698     3.076608668     1.195496678
79 3 0     0.959659044     4.668882478     7.720647474
80 3 0     7.053664144    11.146010230     6.359048942
81 3 0     5.518097456    12.106443714    12.887164863
82 3 0     3.671526254     3.392661051     0.174853241
83 3 0     2.136267345     4.355557978     6.701557744
84 3 0     8.231695979    10.833477001     5.340743622
85 2 0    -2.477535632    13.142095998    11.474387966
86 2 0    11.670021480     2.357287774     1.587930234
87 2 0    10.132171768     5.391644469     8.116986491
88 2 0    -0.939728295    10.108886243     4.945305819
89 2 0     2.428425754    13.964953711    10.682075091
90 2 0     6.765257548     1.534785979     2.379224150
91 2 0     5.226801743     6.214254591     8.909756392
92 2 0     3.965937017     9.285501017     4.151177298
93 2 0     9.156681013     8.926576770     8.713493622
94 2 0     0.035881385     6.572868908     4.349124909
95 2 0    -1.503593101     1.177318632    10.879604601
96 2 0    10.695868343    14.322002553     2.181577066
97 2 0     3.337599708    10.231347873     7.403139642
98 2 0     5.855317181     5.268391585     5.658133905
99 2 0     4.316801107     2.482059480    12.190377465
100 2 0     4.876425347    13.018238444     0.870726337
101 2 0    -2.287970140    11.016294555    10.022162774
102 2 0    11.480149750     4.483259202     3.039580446
103 2 0     9.941994291     3.267501793     9.570765729
104 2 0    -0.750283907    12.232222863     3.490938760
105 2 0     9.262589935    11.951555943    10.784236396
106 2 0    -0.070242434     3.547501935     2.278512942
107 2 0    -1.608151147     4.201523399     8.807816979
108 2 0    10.800168216    11.298759273     4.254618587
109 2 0     2.433103369    12.205609568     8.767663289
110 2 0     6.760243382     3.294533142     4.293139595
111 2 0     5.221915006     4.456196930    10.825421688
112 2 0     3.970940216    11.044674246     2.236007955
113 2 0     3.456304020    11.322194545     8.380611950
114 2 0     5.736904073     4.177452535     4.680465767
115 2 0     4.199269704     3.571960351    11.211625161
116 2 0     4.994266587    11.928073568     1.849256555
117 2 0     9.029179574    10.119162215     9.569446806
118 2 0     0.162827995     5.380267747     3.492924140
119 2 0    -1.376038017     2.368865898    10.022332494
120 2 0    10.567862401    13.130656906     3.038835928
121 2 0     3.006408697    12.980853082     9.762025341
122 2 0     6.186968444     2.519103478     3.298960508
123 2 0     4.649325938     5.229689268     9.829322638
124 2 0     4.543361147    10.270624356     3.231623892
125 4 0     7.941649524    11.659264246    10.794777580
126 4 0     1.250771229     3.839328489     2.268755397
127 4 0    -0.287761496     3.907464825     8.795552015
128 4 0     9.479768719    11.593112091     4.267132311
129 4 0     7.828636254    10.545587438    10.065908819
130 4 0     1.363616360     4.953393066     2.997036337
131 4 0    -0.175413658     2.793570449     9.524120250
132 4 0     9.367408855    12.706650318     3.537936924
133 4 0     4.589659320    11.520760003     9.103850035
134 4 0     4.603506201     3.978654257     3.957409876
135 4 0     3.066794153     3.768696825    10.486426619
136 4 0     6.126508979    11.731058333     2.574663755
137 4 0     4.292762415    12.543314877     9.906874610
138 4 0     4.900506757     2.956192210     3.154203120
139 4 0     3.363807180     4.790833675     9.682959033
140 4 0     5.829038662    10.709107633     3.378196941
