# Position data file
 
152 atoms
5 atom types
 
    0.000000000    12.281900406 xlo xhi
    0.000000000    15.597599983 ylo yhi
    0.000000000    12.826776932 zlo zhi
    0.000000000    -3.098858922     0.000000000 xy xz yz
 
Masses
 
1    26.982000000
2    12.011000000
3     1.008000000
4    14.007000000
5    15.999000000
 
Atoms
 
1 1 0     4.591520742     7.798799992     6.413388466
2 1 0     6.140950203     0.000000000     0.000000000
3 1 0    -1.549429461     7.798799992     6.413388466
4 1 0     0.000000000     0.000000000     0.000000000
5 1 0     1.507380820     8.680219930     7.315880555
6 1 0     7.675660664     6.917379601     5.510896377
7 1 0     6.126231203     0.881420391    11.924284843
8 1 0     3.056810306    14.716180045     0.902491986
9 5 0     2.803968719     8.147718007     6.100415160
10 5 0     6.379073134     7.449881508     6.726361772
11 5 0     7.928502582     0.348918296     0.312973357
12 5 0     1.254539258    15.248681968    12.513803627
13 5 0     0.235722906     7.514611611     6.700708552
14 5 0     8.947318116     8.082988372     6.126068766
15 5 0     7.397888748    15.313411602    12.539456847
16 5 0     1.785152439     0.284188272     0.287319790
17 5 0     4.234586414    13.419551527     1.622587231
18 5 0     4.948455482     2.178048908    11.204189522
19 5 0     6.497884943     5.620751083     4.790801056
20 5 0     2.685156909     9.976848448     8.035975876
21 5 0     6.320085176    14.024269870     1.053078348
22 5 0     2.862956593     1.573329879    11.773698880
23 5 0     4.412386147     6.225469879     5.360310029
24 5 0     4.770655786     9.372130105     7.466466519
25 5 0     1.889814508    14.051097914     2.248534022
26 5 0     7.293227345     1.546502070    10.578242910
27 5 0     8.842656806     6.252297922     4.164854444
28 5 0     0.340385047     9.345302061     8.661922488
29 5 0     0.895372648    10.021457724     6.095284360
30 5 0     8.287669020     5.576141791     6.731492573
31 5 0     9.837098488     2.222657966     0.318104081
32 5 0    -0.654056813    13.374942251    12.508672826
33 5 0     5.019858090     8.850077903     4.884436771
34 5 0     4.163183763     6.747521628     7.942340161
35 5 0     5.712613199     1.051278254     1.528951798
36 5 0     3.470428629    14.546322072    11.297825237
37 5 0     7.090410690     8.234596545     4.270033887
38 5 0     2.092630794     7.363002970     8.556743046
39 5 0     3.642060302     0.435796928     2.143354387
40 5 0     5.540981229    15.161803430    10.683422353
41 5 0    -0.179173480    14.611831711     1.600781723
42 5 0     9.362215004     0.985768272    11.225994838
43 5 0    10.911644375     6.813031719     4.812606744
44 5 0    -1.728603030     8.784568264     8.014170561
45 5 0    -1.186331996     9.411591705     5.505252582
46 5 0    10.369373787     6.186008278     7.321524350
47 5 0    11.918803270     1.612791823     0.908135794
48 5 0    -2.735761457    13.984808270    11.918641049
49 5 0     9.439203245    12.772812173     0.637811483
50 5 0    -0.256161957     2.824787810    12.188965501
51 5 0     1.293267504     4.974012182     5.775577035
52 5 0     7.889773796    10.623587801     7.051199898
53 5 0     9.787753069     9.216512195     2.628334797
54 5 0    -0.604711447     6.381087336    10.198442328
55 5 0     0.944718107     1.417712655     3.785053477
56 5 0     8.238323654    14.179887780     9.041723071
57 3 0     2.517100213     8.042902026     5.222050290
58 3 0     6.665941271     7.554697489     7.604726642
59 3 0     8.215370732     0.244102440     1.191338176
60 3 0     0.967670752    15.353497949    11.635438756
61 3 0     0.539867347     6.657539308     6.505767286
62 3 0     8.643174044     8.940060676     6.321010032
63 3 0     7.093744677    14.456339299    12.734398113
64 3 0     2.089296897     1.141260793     0.092378447
65 3 0     4.354502001    11.139540328     3.219046445
66 3 0     4.828539394     4.458059188     9.607730859
67 3 0     6.377968944     3.340740804     3.194342021
68 3 0     2.805072630    12.256859647     9.632434539
69 3 0     8.102723465    10.133978966     2.977441198
70 3 0     1.080318066     5.463621017     9.849335542
71 3 0     2.629747527     2.335178975     3.435947076
72 3 0     6.553293957    13.262421008     9.390829856
73 3 0     1.615729208    12.170432924     4.387873653
74 3 0     7.567312183     3.427167059     8.438903664
75 3 0     9.116741737     4.371632933     2.025514813
76 3 0     0.066299840    11.225967050    10.801261735
77 3 0    10.524712717    12.915062083     2.564701170
78 3 0    -1.341670956     2.682537667    10.262075378
79 3 0     0.207758412     5.116262559     3.848687297
80 3 0     8.975283164    10.481337892     8.978090021
81 3 0     8.238784291    11.411687377     6.600851798
82 3 0     0.944257193     4.185912138     6.225925134
83 3 0    -0.605172268     3.612887619    12.639313600
84 3 0     9.788213749    11.984712598     0.187463345
85 3 0     7.049783332    10.930018079     7.492697739
86 3 0     2.133258153     4.667581904     5.334079193
87 3 0     0.583828692     3.131218087    11.747467659
88 3 0     8.599212817    12.466381896     1.079309171
89 3 0     8.042875192    14.892416625     9.674519925
90 3 0     1.140166372     0.705183077     3.152257392
91 3 0    -0.409262996     7.093617102     9.565645473
92 3 0     9.592304745     8.503983350     3.261131074
93 3 0     8.658161799    13.476856657     9.594044150
94 3 0     0.524879963     2.120743326     3.232732398
95 3 0    -1.024549591     5.678056665     9.646121249
96 3 0    10.207591213     9.919543318     3.180655876
97 2 0     5.468709519    13.254840325     1.577693601
98 2 0     3.714332037     2.342759424    11.249083036
99 2 0     5.263761404     5.456040334     4.835694955
100 2 0     3.919279987    10.141559649     7.991082362
101 2 0     6.090410829     8.998255508     4.245663165
102 2 0     3.092630562     6.599344475     8.581114153
103 2 0     4.642060116     1.199455408     2.167725302
104 2 0     4.540981461    14.398144467    10.659051246
105 2 0     0.644648824    13.970769962     2.288296941
106 2 0     8.538392245     1.626829678    10.538480184
107 2 0    10.087821799     6.171970438     4.125091333
108 2 0    -0.904780590     9.425630013     8.701685214
109 2 0    -0.183981330    10.146238789     5.438553355
110 2 0     9.367022809     5.451361194     7.388223192
111 2 0    10.916452198     2.347438797     0.974835021
112 2 0    -1.733410884    13.250161186    11.851942206
113 2 0     5.260434314    11.121088788     3.009161779
114 2 0     3.922607217     4.476511195     9.817614961
115 2 0     5.472036678     3.322288796     3.404226495
116 2 0     3.711004807    12.275311187     9.422550437
117 2 0     5.971135049    12.027309113     2.228011217
118 2 0     3.211905974     3.570290636    10.598766100
119 2 0     4.761335528     4.228509574     4.185377249
120 2 0     4.421705681    11.369090862     8.641399299
121 2 0     0.109937371    12.950686845     3.184888725
122 2 0     9.073103889     2.646912670     9.641888015
123 2 0    10.622533257     5.151887321     3.228499933
124 2 0    -1.439492136    10.445713130     9.598277384
125 2 0     0.730287653    12.136492765     4.104568529
126 2 0     8.452753647     3.461107452     8.722208404
127 2 0    10.002183108     4.337692774     2.308819938
128 2 0    -0.819141808    11.259907210    10.517956995
129 2 0     6.195142564    10.189911866     3.400378590
130 2 0     2.987899289     5.407688117     9.426398342
131 2 0     4.537328749     2.391112109     3.013009876
132 2 0     4.645713103    13.206488109     9.813767057
133 2 0    -0.254400941    11.258348120     4.515025455
134 2 0     9.437442696     4.339252331     8.311751478
135 2 0    10.986872156     3.459547661     1.898363012
136 2 0    -1.803830402    12.138051855    10.928413921
137 4 0     7.250471426    11.670124292     2.148485187
138 4 0     1.932570105     3.927475691    10.678291553
139 4 0     3.481999473     3.871324300     4.264903471
140 4 0     5.701041918    11.726275683     8.561873846
141 4 0     7.365559586    10.562695005     2.866784619
142 4 0     1.817481576     5.034905431     9.959992121
143 4 0     3.366911037     2.763894779     3.546603655
144 4 0     5.816130079    12.833704970     9.280173277
145 4 0    11.107067884    12.552948061     3.083557187
146 4 0    -1.924026673     3.044651454     9.743219553
147 4 0    -0.374597302     4.754148537     3.329831458
148 4 0     9.557638377    10.843451914     9.496945846
149 4 0    10.865489932    11.537545004     3.885230566
150 4 0    -1.682448591     4.060055432     8.941545994
151 4 0    -0.133019177     3.738744778     2.528157721
152 4 0     9.316060381    11.858854971    10.298619404
