# Position data file
 
140 atoms
5 atom types
 
    0.000000000    12.239000320 xlo xhi
    0.000000000    15.074000359 ylo yhi
    0.000000000    13.358706116 zlo zhi
    0.000000000    -2.809763788     0.000000000 xy xz yz
 
Masses
 
1    26.982000000
2    12.011000000
3     1.008000000
4    14.007000000
5    15.999000000
 
Atoms
 
1 1 0    -1.404881894     7.537000179     6.679353058
2 1 0     0.000000000     0.000000000     0.000000000
3 1 0     1.684884809     6.544663571     5.831275640
4 1 0     7.744351275     8.529336787     7.527430863
5 1 0     9.149233251    14.081663751     0.848077418
6 1 0     0.280002996     0.992336487    12.510628311
7 1 0     4.714618266     7.537000179     6.679353058
8 1 0     6.119500160     0.000000000     0.000000000
9 5 0     0.363699575     7.123430086     7.024835635
10 5 0     9.065537223     7.950570724     6.333870093
11 5 0     7.660655248    14.660429813    13.013223539
12 5 0     1.768581407     0.413570259     0.345482871
13 5 0     2.894254777     7.759778409     6.528506401
14 5 0     6.534981840     7.314221513     6.830199313
15 5 0     7.939863680     0.222778651     0.150846509
16 5 0     1.489372799    14.851222129    13.207859860
17 5 0     7.903444342    13.393490638     2.137980762
18 5 0     1.525792597     1.680509841    11.220725167
19 5 0     2.930674491     5.856490459     4.541372109
20 5 0     6.498562409     9.217509900     8.817334006
21 5 0    10.374875282    12.789505125     1.542543127
22 5 0    -0.945639097     2.284495008    11.816162895
23 5 0     0.459242797     5.252505398     5.136809837
24 5 0     8.969993368     9.821495413     8.221896278
25 5 0     1.175196321     7.776842343     4.482433551
26 5 0     8.254039844     7.297157564     8.876272564
27 5 0     9.658921780     0.239842420     2.196919306
28 5 0    -0.229685573    14.834158195    11.161786609
29 5 0     0.248794724    13.416976021     0.934454825
30 5 0     9.180441491     1.657024563    12.424251291
31 5 0    10.585323385     5.879975842     5.744898233
32 5 0    -1.156087170     9.194024517     7.613807883
33 5 0    -0.929664602     8.446640640     5.027362132
34 5 0    10.358900747     6.627359718     8.331344371
35 5 0    11.763782703     0.909640582     1.651991020
36 5 0    -2.334546414    14.164359897    11.706714802
37 5 0     7.153047080     9.869550633     6.302036377
38 5 0     2.276189169     5.204449273     7.056669338
39 5 0     3.681070985     2.332550906     0.377316654
40 5 0     5.748165102    12.741449905    12.981389835
41 5 0     4.922873737     9.407593315     6.181794837
42 5 0     4.506362795     5.666407043     7.176911279
43 5 0     5.911244658     1.870593031     0.497558368
44 5 0     3.517991843    13.203407222    12.861147895
45 5 0     5.949537686    14.532225636     1.850928938
46 5 0     3.479698480     0.541774662    11.507777178
47 5 0     4.884580374     6.995225457     4.828424120
48 5 0     4.544655792     8.078774902     8.530281996
49 5 0     1.260787675    11.152498939     2.064721617
50 5 0     8.168448942     3.921500982    11.293984098
51 5 0     9.573330751     3.615498986     4.614631441
52 5 0    -0.144094303    11.458501599     8.744075076
53 5 0     4.563489361    11.690656369     4.661600504
54 5 0     4.865747172     3.383344216     8.697105611
55 5 0     6.270629108     4.153655737     2.017752353
56 5 0     3.158607467    10.920344169    11.340953562
57 5 0     1.851494696    10.308762008     6.515401471
58 5 0     7.577741482     4.765238351     6.843304645
59 5 0     8.982623415     2.771762054     0.163951400
60 5 0     0.446612802    12.302238530    13.194754528
61 3 0     0.722362986     7.487361376     7.846756920
62 3 0     8.706873364     7.586638531     5.511949196
63 3 0     7.301991470    15.024362007    12.191302254
64 3 0     2.127244857     0.049638683     1.167403969
65 3 0     2.564253702     8.690688586     6.550855690
66 3 0     6.864982464     6.383311773     6.807850425
67 3 0     8.269864352     1.153688633     0.128497394
68 3 0     1.159371808    13.920311952    13.230208748
69 3 0    10.479106067    10.552870158     3.258869622
70 3 0    -1.049869450     4.521129748    10.099836093
71 3 0     0.355012359     3.015870431     3.420483436
72 3 0     9.074224089    12.058130380     9.938223081
73 3 0     3.853951894    13.132830677     3.333932245
74 3 0     5.575284680     1.941169455    10.024773670
75 3 0     6.980166574     5.595830498     3.345420612
76 3 0     2.449069958     9.478169861    10.013285503
77 3 0     7.853337574    11.776276163     4.377674524
78 3 0     1.575898959     3.297723969     8.981031591
79 3 0     2.980778088     4.239275984     2.301691678
80 3 0     6.448455680    10.834724375    11.057027582
81 3 0     2.484199276     9.671644143     2.887217193
82 3 0     6.945036931     5.402355764    10.471488722
83 3 0     8.349918741     2.134644189     3.792136065
84 3 0     1.079317340    12.939356395     9.566570451
85 3 0     6.839954516     4.135054496     6.913170798
86 3 0     2.589282300    10.938931030     6.445535718
87 3 0     1.184400490    11.672069508    13.124888375
88 3 0     8.244836471     3.401945683     0.233817447
89 3 0     8.201940629     4.423359797     6.175075368
90 3 0     1.227296087    10.650640110     7.183630748
91 3 0     2.632177959    11.960360428     0.504277797
92 3 0     6.797058735     3.113640383    12.854428425
93 2 0    11.634654218    12.642503850     1.484325873
94 2 0    -2.205417520     2.431496509    11.874380043
95 2 0    -0.800535627     5.105503671     5.195026985
96 2 0    10.229772282     9.968496688     8.163679131
97 2 0     0.162053839     8.538124824     4.378382776
98 2 0     9.267182610     6.535875535     8.980323740
99 2 0    10.672064588     1.001124645     2.300970281
100 2 0    -1.242827971    14.072875714    11.057735433
101 2 0     6.695032358    13.672449938     2.424591855
102 2 0     2.734204175     1.401550420    10.934114261
103 2 0     4.139086069     6.135449759     4.254761203
104 2 0     5.290150464     8.938550600     9.103944913
105 2 0     5.963983655    10.091335139     5.908368893
106 2 0     3.465252878     4.982665672     7.450337222
107 2 0     4.870134730     2.554334507     0.770984365
108 2 0     4.559101761    12.519665399    12.587721951
109 2 0    11.527174151    10.552734492     2.983667051
110 2 0    -2.097937562     4.521265414    10.375039265
111 2 0    -0.693055668     3.015734765     3.695686207
112 2 0    10.122292299    12.058266046     9.663019908
113 2 0     4.748092033    12.671385499     3.736911174
114 2 0     4.681144415     2.402614860     9.621795342
115 2 0     6.086026351     5.134385320     2.942442084
116 2 0     3.343210224     9.939615039    10.416263831
117 2 0     6.089836451    12.848459826     3.484511554
118 2 0     3.339400166     2.225540532     9.874194161
119 2 0     4.744281976     5.311459647     3.194841504
120 2 0     4.684954473     9.762540711    10.163865012
121 2 0    -0.092338040    11.454491688     2.162974954
122 2 0     9.521574279     3.619508670    11.195731161
123 2 0    10.926456173     3.917491509     4.516378104
124 2 0    -1.497219934    11.156508849     8.842328012
125 2 0     0.292515473     9.639837942     3.413697079
126 2 0     9.136720875     5.434161980     9.945008635
127 2 0    10.541602684     2.102838199     3.265655978
128 2 0    -1.112366505    12.971162596    10.093050538
129 2 0     6.782153698    11.929111287     4.323625293
130 2 0     2.647082551     3.144888635     9.035080422
131 2 0     4.051964361     4.392111545     2.355727765
132 2 0     5.377271720    10.681889251    11.002978752
133 2 0     1.468088896    10.044740846     2.825847324
134 2 0     7.961147228     5.029259513    10.532858992
135 2 0     9.366029122     2.507740878     3.853505935
136 2 0     0.063207044    12.566259692     9.505200181
137 2 0     5.826624863    11.243259827     5.019533890
138 2 0     3.602611670     3.830740532     8.339172226
139 2 0     5.007493544     3.706259648     1.659819262
140 2 0     4.421742969    11.367740711    11.698886948
