# Position data file
 
140 atoms
5 atom types
 
    0.000000000    12.239000320 xlo xhi
    0.000000000    15.074000359 ylo yhi
    0.000000000    13.358706116 zlo zhi
    0.000000000    -2.809763788     0.000000000 xy xz yz
 
Masses
 
1    26.982000000
2    12.011000000
3     1.008000000
4    14.007000000
5    15.999000000
 
Atoms
 
1 1 0    -1.404881894     7.537000179     6.679353058
2 1 0     0.000000000     0.000000000     0.000000000
3 1 0     1.699190116     6.556602134     5.846531229
4 1 0     7.730046233     8.517397772     7.512174887
5 1 0     9.134928127    14.093602766     0.832821829
6 1 0     0.294308222     0.980397924    12.525884287
7 1 0     4.714618266     7.537000179     6.679353058
8 1 0     6.119500160     0.000000000     0.000000000
9 5 0     0.372671992     7.191715052     7.016566663
10 5 0     9.056564992     7.882285307     6.342139052
11 5 0     7.651683014    14.728715231    13.021492511
12 5 0     1.777553844     0.345285052     0.337213805
13 5 0     2.909645506     7.779390437     6.479947652
14 5 0     6.519590942     7.294610374     6.878758865
15 5 0     7.924472920     0.242389926     0.199405406
16 5 0     1.504763697    14.831610101    13.159300309
17 5 0     7.908753855    13.385666674     2.099294002
18 5 0     1.520482677     1.688333247    11.259412114
19 5 0     2.925364571     5.848666932     4.580059056
20 5 0     6.503871961     9.225333864     8.778647060
21 5 0    10.368671984    12.789113397     1.521703612
22 5 0    -0.939435707     2.284886736    11.837002904
23 5 0     0.465446271     5.252113217     5.157649445
24 5 0     8.963790175     9.821887141     8.201056269
25 5 0     1.146587577     7.766833267     4.485372480
26 5 0     8.282648956     7.307167092     8.873333636
27 5 0     9.687530892     0.229833283     2.193980377
28 5 0    -0.258294317    14.844167271    11.164725538
29 5 0     0.244630212    13.320834122     0.832581372
30 5 0     9.184606602     1.753166583    12.526124744
31 5 0    10.589488496     5.783833491     5.846771686
32 5 0    -1.160251682     9.290166416     7.511934430
33 5 0    -0.991503569     8.345856296     4.986083810
34 5 0    10.420740297     6.728144515     8.372622306
35 5 0    11.825622149     0.808855785     1.693269448
36 5 0    -2.396385462    14.265144242    11.665436868
37 5 0     7.183368747     9.826967155     6.226947277
38 5 0     2.245867786     5.247033204     7.131758839
39 5 0     3.650749648     2.289966749     0.452405928
40 5 0     5.778486853    12.784033383    12.906300335
41 5 0     4.954174040     9.373978476     6.171121231
42 5 0     4.475062493     5.700022335     7.187584885
43 5 0     5.879944356     1.836977950     0.508231974
44 5 0     3.549292146    13.237022062    12.850474288
45 5 0     5.924430977    14.491736525     1.842980454
46 5 0     3.504803160     0.582263397    11.515738793
47 5 0     4.909687816     6.954736783     4.836372603
48 5 0     4.519551846     8.119264013     8.522320381
49 5 0     1.205689058    11.080656434     2.048771309
50 5 0     8.223547559     3.993343924    11.309934406
51 5 0     9.628429368     3.543656255     4.630581749
52 5 0    -0.199192920    11.530344104     8.728124767
53 5 0     1.628261249    10.167036603     6.814116046
54 5 0     7.800975566     4.906963756     6.544590471
55 5 0     6.396093757     2.630036197    13.223943128
56 5 0     3.033143219    12.443963935     0.134762627
57 5 0     4.795246765    12.759326976     3.690022143
58 5 0     4.633990050     2.314673157     9.668684374
59 5 0     6.038871986     5.222327234     2.989331116
60 5 0     3.390364956     9.851673562    10.369374800
61 3 0     0.619761552     7.145814826     7.951796225
62 3 0     8.809475065     7.928185985     5.406909489
63 3 0     7.404593087    14.682814553    12.086262948
64 3 0     2.024643381     0.391185383     1.272443475
65 3 0     2.534402544     8.686407328     6.614282653
66 3 0     6.894833989     6.387592578     6.744423462
67 3 0     8.299715913     1.149407601     0.065070257
68 3 0     1.129520650    13.924593209    13.293635711
69 3 0    10.402007011    10.503126696     3.191047605
70 3 0    -0.972770522     4.570874115    10.167658310
71 3 0     0.432111287     2.966126064     3.488305653
72 3 0     8.997125075    12.107873842     9.870400863
73 3 0     7.860503145    11.678219610     4.268427079
74 3 0     1.568736601     3.395780312     9.090265504
75 3 0     2.973618495     4.141219868     2.410912446
76 3 0     6.455618405    10.932780928    10.947793669
77 3 0     2.404540958     9.581576870     2.868862250
78 3 0     7.024695433     5.492423037    10.489843665
79 3 0     8.429577327     2.044577143     3.810490607
80 3 0     0.999659022    13.029423668     9.548215509
81 3 0     3.552089268    11.577058792     4.882339991
82 3 0     5.877147620     3.496942018     8.476366124
83 3 0     7.282029514     4.040058161     1.797013067
84 3 0     2.147207374    11.033941745    11.561693049
85 3 0     8.719785819     5.151796077     6.287782464
86 3 0     0.709450713     9.922204282     7.070923652
87 3 0     2.114332649    12.688796256     0.391570394
88 3 0     7.314903925     2.385204329    12.967135522
89 3 0     7.449291966     4.467466201     5.752151984
90 3 0     1.979944567    10.606533705     7.606554132
91 3 0     3.384826461    12.004466833     0.927201074
92 3 0     6.044410072     3.069533752    12.431505042
93 2 0    11.616043260    12.588704637     1.431759444
94 2 0    -2.186806726     2.485295721    11.926947072
95 2 0    -0.781924748     5.051704458     5.247593614
96 2 0    10.211161450    10.022295901     8.111112101
97 2 0     0.105755829     8.477603180     4.344451770
98 2 0     9.323480351     6.596397631     9.014254747
99 2 0    10.728362287     0.940602548     2.334901488
100 2 0    -1.299125981    14.133397358    11.023804427
101 2 0     6.695204345    13.648210735     2.397647264
102 2 0     2.734032146     1.425804442    10.961059052
103 2 0     4.138914124     6.111210555     4.281705593
104 2 0     5.290322493     8.962789803     9.077000122
105 2 0     5.983290944    10.052669936     5.855908947
106 2 0     3.445945306     5.021330423     7.502796768
107 2 0     4.850827138     2.515669757     0.823444004
108 2 0     4.578408966    12.558330602    12.535262406
109 2 0    11.454827950    10.495273066     2.935669260
110 2 0    -2.025591047     4.578727730    10.423036669
111 2 0    -0.620709235     2.958272676     3.743683998
112 2 0    10.049946017    12.115727472     9.615022505
113 2 0     6.162910916    12.806599614     3.467893217
114 2 0     3.266326068     2.267400956     9.890812498
115 2 0     4.671207920     5.269598997     3.211459641
116 2 0     4.758028938     9.804400924    10.147246675
117 2 0    -0.142128946    11.395461526     2.127026676
118 2 0     9.571365052     3.678538395    11.231679840
119 2 0    10.976247030     3.858461784     4.552326382
120 2 0    -1.547010755    11.215539012     8.806379333
121 2 0     0.209640527     9.573633399     3.375023652
122 2 0     9.219596273     5.500366959     9.983682063
123 2 0    10.624478083     2.036633220     3.304329406
124 2 0    -1.195241451    13.037367139    10.054377110
125 2 0     6.796312356    11.875930229     4.241763356
126 2 0     2.632924176     3.198069693     9.116942760
127 2 0     4.037806031     4.338930487     2.437589889
128 2 0     5.391430462    10.735070309    10.921116414
129 2 0     1.395714410     9.973471575     2.802015232
130 2 0     8.033522390     5.100529235    10.556690483
131 2 0     9.438404200     2.436470944     3.877337826
132 2 0    -0.009167568    12.637528963     9.481368690
133 2 0     5.778115062    11.196032999     4.964228593
134 2 0     3.651121470     3.877967360     8.394477523
135 2 0     5.056003406     3.659032609     1.715124265
136 2 0     4.373233168    11.414967539    11.643581650
137 2 0     4.580867965    11.766900527     4.591253812
138 2 0     4.848368484     3.307100058     8.767452705
139 2 0     6.253250420     4.229900348     2.088099446
140 2 0     3.175986155    10.844100011    11.270606469
