# Position data file
 
152 atoms
5 atom types
 
    0.000000000    12.043800354 xlo xhi
    0.000000000    14.964900017 ylo yhi
    0.000000000    13.775348588 zlo zhi
    0.000000000    -2.910202295     0.000000000 xy xz yz
 
Masses
 
1    26.982000000
2    12.011000000
3     1.008000000
4    14.007000000
5    15.999000000
 
Atoms
 
1 1 0     4.566799030     7.482450008     6.887674294
2 1 0     6.021900177     0.000000000     0.000000000
3 1 0     7.578810022     6.582251547     5.965607754
4 1 0     1.554788311     8.382648918     7.809741248
5 1 0     3.009889502    14.064701107     0.922066747
6 1 0     6.123708962     0.900198566    12.853281635
7 1 0    -1.455101147     7.482450008     6.887674294
8 1 0     0.000000000     0.000000000     0.000000000
9 5 0     6.478814396     5.227718527     5.309887179
10 5 0     2.654784024     9.737181938     8.465461409
11 5 0     4.109885172    12.710168087     1.577787115
12 5 0     5.023713249     2.254731481    12.197561473
13 5 0     6.348581678     7.171673885     7.205733207
14 5 0     2.785016381     7.793225683     6.569615381
15 5 0     1.329915234    14.654124342    13.457289675
16 5 0     7.803682805     0.310776079     0.318059010
17 5 0     8.726363526     5.940317151     4.578085423
18 5 0     0.407234714     9.024582865     9.197263165
19 5 0     1.862335905    13.422767160     2.309588665
20 5 0     7.271262378     1.542132962    11.465759717
21 5 0     8.828638868     7.777437684     6.556983152
22 5 0     0.304959552     7.187461884     7.218365436
23 5 0     1.760060726     0.294988094     0.330691018
24 5 0     7.373537721    14.669912342    13.444657446
25 5 0     3.553704538     0.363931418     2.227735516
26 5 0     5.579893247    14.600968718    11.547612659
27 5 0     7.034994307     7.846381307     4.659938778
28 5 0     2.098603304     7.118518710     9.115410223
29 5 0     9.653170988     2.278031950     0.273619749
30 5 0    -0.519573083    12.686867842    13.501728715
31 5 0     0.935528064     9.760482183     6.614054421
32 5 0     8.198069814     5.204418283     7.161294167
33 5 0     4.380311366     5.846143066     5.908894478
34 5 0     4.753286244     9.118756951     7.866454523
35 5 0     6.208387479    13.328593074     0.978779816
36 5 0     2.925210306     1.636307063    12.796568359
37 5 0     5.653447508     0.992591843     1.628273768
38 5 0     3.480150825    13.972308293    12.147075234
39 5 0     4.935252060     8.475041732     5.259400527
40 5 0     4.198346448     6.489858285     8.515947648
41 5 0    11.712553063     1.596036502     0.958350960
42 5 0    -2.578955149    13.368863186    12.816997518
43 5 0    -1.123854002     9.078486839     5.929323224
44 5 0    10.257451893     5.886413612     7.846025364
45 5 0    10.830238376     6.480609812     5.259951472
46 5 0    -1.696640229     8.484290654     8.515396703
47 5 0    -0.241539149    13.963059371     1.627722726
48 5 0     9.375137141     1.001840197    12.147626179
49 5 0     7.399049454     9.270321788     8.706515821
50 5 0     1.734548871     5.694578229     5.068832368
51 5 0     0.279447639     1.787871555    11.956507061
52 5 0     8.854150517    13.177028237     1.818841926
53 5 0     6.675311095    11.928851061    13.214223635
54 5 0     2.458287122     3.036048956     0.561125063
55 5 0     1.003185997     4.446401053     7.448799247
56 5 0     8.130412242    10.518498964     6.326549341
57 3 0     6.745051629     7.751369651     7.896966479
58 3 0     2.388546430     7.213530815     5.878382109
59 3 0     0.933445283     0.268919238    12.766056403
60 3 0     8.200152776    14.695980374     1.009292185
61 3 0     8.633554937     8.721842998     6.378592346
62 3 0     0.500045889     6.243057019     7.396742287
63 3 0     1.955147037     1.239392989     0.509067993
64 3 0     7.178450842    13.725507027    13.266280595
65 3 0     0.723945574     3.044728568     2.643709855
66 3 0     8.409652623    11.920171225    11.131638940
67 3 0     9.864753770    10.527178801     4.243964646
68 3 0    -0.731155530     4.437721216     9.531383942
69 3 0     2.683055229     4.672610571     4.365642176
70 3 0     6.450542830    10.292289895     9.409706412
71 3 0     7.905643978    12.155060131     2.522032118
72 3 0     1.227954082     2.809839662    11.253316470
73 3 0     6.461230153     2.763957233     3.898974485
74 3 0     2.672368255    12.200942559     9.876374103
75 3 0     4.127469446    10.246407466     2.988699602
76 3 0     5.006129006     4.718493000    10.786648779
77 3 0     8.802377878     4.431346244     2.149987545
78 3 0     0.331220001    10.533553773    11.625361044
79 3 0     1.786321148    11.913796252     4.737686749
80 3 0     7.347276730     3.051103765     9.037661839
81 3 0     8.265515346     9.444797048     9.160483122
82 3 0     0.868082626     5.520102520     4.614865879
83 3 0    -0.587018434     1.962347264    11.502539760
84 3 0     9.720616537    13.002552977     2.272808622
85 3 0     7.503175712     9.711292287     7.829908482
86 3 0     1.630422082     5.253607730     5.945440506
87 3 0     0.175321019     2.228842279    12.833114400
88 3 0     8.958276923    12.736057738     0.942233885
89 3 0     6.460546627    11.848160096    12.239424799
90 3 0     2.673051613     3.116739697     1.535923789
91 3 0     1.217950466     4.365710087     8.423598083
92 3 0     7.915647774    10.599189929     5.351750505
93 3 0     7.426550944    11.339727543    13.392738419
94 3 0     1.707047264     3.625172264     0.382610321
95 3 0     0.251946148     3.857277968     7.270284463
96 3 0     8.881652092    11.107622482     6.505064125
97 4 0    -0.122483170     3.615400200     2.682886822
98 4 0     9.256081485    11.349500042    11.092461353
99 4 0    10.711182545    11.097849984     4.204787472
100 4 0    -1.577584404     3.867050033     9.570561530
101 4 0     3.434051206     3.982324299     4.046026511
102 4 0     5.699546853    10.982575269     9.729322078
103 4 0     7.154648000    11.464774756     2.841647784
104 4 0     1.978950059     3.500125485    10.933700805
105 4 0     3.207839995     2.950255214     3.226944297
106 4 0     5.925755522    12.014645027    10.548418039
107 4 0     7.380859530    10.432704998     3.660730203
108 4 0     1.752741752     4.532195019    10.114604844
109 4 0    -0.255019041     4.570415359     3.597680281
110 4 0     9.388617101    10.394484658    10.177668307
111 4 0    10.843718248    12.052865367     3.289994013
112 4 0    -1.710120189     2.912034874    10.485354576
113 2 0     5.220488818     5.114838317     5.301112365
114 2 0     3.913108880     9.850061700     8.474236224
115 2 0     5.368210004    12.597288325     1.586562040
116 2 0     3.765387670     2.367611692    12.188786659
117 2 0     9.985565875     5.907349222     4.503010035
118 2 0    -0.851967638     9.057550346     9.272338967
119 2 0     0.603133553    13.389799680     2.384664466
120 2 0     8.530464815     1.575100681    11.390683916
121 2 0     4.559324496     1.138499634     2.253908719
122 2 0     4.574273881    13.826400383    11.521440076
123 2 0     6.029375116     8.620949642     4.633765368
124 2 0     3.104223392     6.343950375     9.141582807
125 2 0     5.407886081     3.000567208     3.824147067
126 2 0     3.725712240    11.964333034     9.951201934
127 2 0     5.180813475    10.483016992     3.063527227
128 2 0     3.952785021     4.481883025    10.711820948
129 2 0    10.689953191     2.356178538     0.983821635
130 2 0    -1.556354867    12.608721703    12.791526954
131 2 0    -0.101253720     9.838628322     5.903852660
132 2 0     9.234852044     5.126271246     7.871495929
133 2 0     9.834679113     4.320905162     2.457880306
134 2 0    -0.701080786    10.643994855    11.317467869
135 2 0     0.754020274    11.803355170     4.429793988
136 2 0     8.379577878     3.161544622     9.345555013
137 2 0     4.724018317     4.039640105     4.445070905
138 2 0     4.409579655    10.925260360     9.330278097
139 2 0     5.864680890    11.522089665     2.442603389
140 2 0     3.268917257     3.442809903    11.332744786
141 2 0    10.771159394     3.426288698     1.969585511
142 2 0    -1.637561332    11.538611767    11.805762664
143 2 0    -0.182460272    10.908738258     4.918088783
144 2 0     9.316058159     4.056161310     8.857260218
145 2 0    10.520764533     5.004995741     3.475327415
146 2 0    -1.387166121     9.959889116    10.300020760
147 2 0     0.067934983    12.487460909     3.412346673
148 2 0     9.065663298     2.477454267    10.363002122
149 2 0     4.418166267     2.335901218     3.096808469
150 2 0     4.715431387    12.628999023    10.678540326
151 2 0     6.170532619     9.818351002     3.790865632
152 2 0     2.963065163     5.146549015     9.984482556
