# Position data file
 
128 atoms
5 atom types
 
    0.000000000    12.239000320 xlo xhi
    0.000000000    15.074000360 ylo yhi
    0.000000000    13.358706120 zlo zhi
    0.000000000    -2.809763788     0.000000000 xy xz yz
 
Masses
 
1    26.982000000
2    12.011000000
3     1.008000000
4    14.007000000
5    15.999000000
 
Atoms
 
1 1 0    -1.404885690     7.537018975     6.679336771
2 1 0     0.000070720     0.000013146    -0.000061334
3 1 0     1.662566557     6.692840451     5.973792713
4 1 0     7.766637266     8.381175195     7.384954823
5 1 0     9.171659090    14.229878900     0.705546517
6 1 0     0.257787683     0.844203028    12.653040200
7 1 0     4.714626401     7.536920197     6.679246286
8 1 0     6.119499274    -0.000189543     0.000374449
9 5 0     0.333544221     7.281983100     7.008467099
10 5 0     9.095673332     7.792031650     6.350239411
11 5 0     7.690867953    14.818994430    13.029541860
12 5 0     1.738499393     0.255033275     0.329050280
13 5 0     2.925551139     7.839148594     6.514910413
14 5 0     6.503693901     7.234815713     6.843823301
15 5 0     7.908601435     0.302134258     0.164496513
16 5 0     1.520668027    14.771803650    13.194265200
17 5 0     7.983776910    13.415457300     1.970437292
18 5 0     1.445459487     1.658520005    11.388368710
19 5 0     2.850376573     5.878442151     4.708957410
20 5 0     6.578927042     9.195544592     8.649704356
21 5 0    10.289872780    12.954273390     1.484315577
22 5 0    -0.860567767     2.119785771    11.874341800
23 5 0     0.544316614     5.417288520     5.195038044
24 5 0     8.884964795     9.656761605     8.163669438
25 5 0     1.259155361     7.980890699     4.649457456
26 5 0     8.170127094     7.093130851     8.709276463
27 5 0     9.575063804     0.443906928     2.029879905
28 5 0    -0.145704745    14.630127570    11.328762270
29 5 0     0.224552698    13.428144540     0.804941883
30 5 0     9.204756492     1.645865154    12.553721550
31 5 0    10.609610740     5.891124586     5.874363192
32 5 0    -1.180351242     9.182884040     7.484290370
33 5 0    -1.007075308     8.373080977     4.986834891
34 5 0    10.436344380     6.700968870     8.371813873
35 5 0    11.841317400     0.836051896     1.692474305
36 5 0    -2.411946796    14.237922580    11.666169610
37 5 0     7.264060474     9.620423441     6.115300666
38 5 0     2.165170234     5.453565312     7.243405947
39 5 0     3.570085190     2.083428732     0.564041657
40 5 0     5.859222871    12.990590340    12.794666220
41 5 0     4.952469433     9.328431354     6.122788406
42 5 0     4.476760017     5.745533643     7.235926924
43 5 0     5.881667750     1.791387729     0.556646133
44 5 0     3.547620325    13.282501640    12.802193440
45 5 0     5.966629030    14.532812360     1.767000995
46 5 0     3.462690130     0.541175793    11.591569310
47 5 0     4.867531291     6.995822762     4.912316541
48 5 0     4.561717041     8.078196487     8.446476025
49 5 0     1.168659816    11.238221010     2.064345780
50 5 0     8.260668225     3.835824058    11.294344340
51 5 0     9.665591904     3.701132391     4.615001219
52 5 0    -0.236225743    11.372777810     8.743716343
53 5 0     4.663501287    11.562851670     4.528652200
54 5 0     4.765730645     3.511152454     8.830075835
55 5 0     6.170646702     4.025854788     2.150710060
56 5 0     3.258672791    11.048165690    11.207998600
57 3 0     0.636428191     8.078421671     7.509137372
58 3 0     8.792767393     6.995579672     5.849600591
59 3 0     7.387977255     0.541440663    12.528888840
60 3 0     2.041417952    14.532602190     0.829717934
61 3 0     2.874889610     8.601219998     5.883088808
62 3 0     6.554327376     6.472773754     7.475682195
63 3 0     7.959263071     1.064231173     0.796289408
64 3 0     1.470067881    14.009791640    12.562367660
65 3 0    10.422490410    10.613061360     3.308781489
66 3 0    -0.993149147     4.460931699    10.049885850
67 3 0     0.411788894     3.076125007     3.370570956
68 3 0     9.017589545    11.997951160     9.988102841
69 3 0     3.932167443    13.064812190     3.279122660
70 3 0     5.497058721     2.009160370    10.079604120
71 3 0     6.901994015     5.527844046     3.400232137
72 3 0     2.527349161     9.546177624     9.958475204
73 3 0     7.927022290    11.591386090     4.087481280
74 3 0     1.502213477     3.482619597     9.271306867
75 3 0     2.907133864     4.054385509     2.591925887
76 3 0     6.522197178    11.019639350    10.766800350
77 3 0     2.415343220     9.780059767     2.877454134
78 3 0     7.014008850     5.293990685    10.481224500
79 3 0     8.418966810     2.242944533     3.801867903
80 3 0     1.010474758    12.830907360     9.556871103
81 2 0    11.566666380    12.708659440     1.437358772
82 2 0    -2.137353074     2.365372894    11.921319410
83 2 0    -0.732472960     5.171666849     5.241951555
84 2 0    10.161757810     9.902349957     8.116730110
85 2 0     0.141541388     8.631426033     4.426082575
86 2 0     9.287755791     6.442605227     8.932611186
87 2 0    10.692718480     1.094383305     2.253262065
88 2 0    -1.263324431    13.979603680    11.105407110
89 2 0     6.740726880    13.609948050     2.290593880
90 2 0     2.688536650     1.464023086    11.068136520
91 2 0     4.093427611     6.072954269     4.388776255
92 2 0     5.335867169     9.001044609     8.969945500
93 2 0     6.049064330     9.934814740     5.742606363
94 2 0     3.380157023     5.139169647     7.616129895
95 2 0     4.785073196     2.397814730     0.936767027
96 2 0     4.644233179    12.676175860    12.421963460
97 2 0    11.460057280    10.637325800     3.019904228
98 2 0    -2.030715836     4.436697906    10.338775470
99 2 0    -0.625787506     3.100306189     3.659435073
100 2 0    10.055169880    11.973704810     9.699246983
101 2 0     4.828645554    12.569316070     3.615216800
102 2 0     4.600575251     2.504684266     9.743521499
103 2 0     6.005496805     5.032323539     3.064158569
104 2 0     3.423821385    10.041694830    10.294563750
105 2 0     6.158826667    12.721605990     3.303361204
106 2 0     3.270401292     2.352421667    10.055381870
107 2 0     4.675327868     5.184597702     3.376013413
108 2 0     4.754011686     9.889422401     9.982705027
109 2 0    -0.196675531    11.542698350     2.170987921
110 2 0     9.625997841     3.531336317    11.187700060
111 2 0    11.030916320     4.005664483     4.508341043
112 2 0    -1.601570504    11.068320270     8.850348793
113 2 0     0.240628978     9.734515154     3.461731837
114 2 0     9.188709931     5.339521254     9.896967278
115 2 0    10.593666680     2.197454211     3.217620697
116 2 0    -1.164248051    12.876505900    10.141074710
117 2 0     6.861838005    11.752470350     4.086123759
118 2 0     2.567393001     3.321545156     9.272636934
119 2 0     3.972312205     4.215466084     2.593271489
120 2 0     5.457012264    10.858560190    10.765449090
121 2 0     1.401262304    10.144990320     2.848281135
122 2 0     8.028083494     4.929059827    10.510431170
123 2 0     9.433027204     2.607903304     3.831079737
124 2 0    -0.003615981    12.466009240     9.527642541
125 2 0     5.939998904    11.060381070     4.825494775
126 2 0     3.489229924     4.013628860     8.533248435
127 2 0     4.894144008     3.523384083     1.853876772
128 2 0     4.535173809    11.550640550    11.504827820
