# Position data file
 
152 atoms
5 atom types
 
    0.000000000    12.043800354 xlo xhi
    0.000000000    14.964900017 ylo yhi
    0.000000000    13.775348588 zlo zhi
    0.000000000    -2.910202295     0.000000000 xy xz yz
 
Masses
 
1    26.982000000
2    12.011000000
3     1.008000000
4    14.007000000
5    15.999000000
 
Atoms
 
1 1 0     4.566799030     7.482450008     6.887674294
2 1 0     6.021900177     0.000000000     0.000000000
3 1 0     7.588394326     6.488032402     5.992414196
4 1 0     1.545204170     8.476867615     7.782933978
5 1 0     3.000305274    13.970482411     0.895259891
6 1 0     6.133293091     0.994417606    12.880088904
7 1 0    -1.455101147     7.482450008     6.887674294
8 1 0     0.000000000     0.000000000     0.000000000
9 5 0     6.397136239     5.221104072     5.254744624
10 5 0     2.736461820     9.743795945     8.520603964
11 5 0     4.191562947    12.703554080     1.632929767
12 5 0     4.942035092     2.261345937    12.142418918
13 5 0     6.305527356     7.026319901     7.212221342
14 5 0     2.828070704     7.938580565     6.563127247
15 5 0     1.372969556    14.508769460    13.450801541
16 5 0     7.760628465     0.456130138     0.324547227
17 5 0     8.791874746     5.820298459     4.700286802
18 5 0     0.341723132     9.144601109     9.075061786
19 5 0     1.796824236    13.302748916     2.187387699
20 5 0     7.336773599     1.662151445    11.587961096
21 5 0     8.801859431     7.709617071     6.629524289
22 5 0     0.331738267     7.255282946     7.145824299
23 5 0     1.786839409     0.227167182     0.258150033
24 5 0     7.346758283    14.737732954    13.517198583
25 5 0     3.539596917     0.338356374     2.142755514
26 5 0     5.594000780    14.626543493    11.632593074
27 5 0     7.049101928     7.820806532     4.744918780
28 5 0     2.084495770     7.144093484     9.030429808
29 5 0     9.662358087     2.303247702     0.375791496
30 5 0    -0.528760103    12.661652540    13.399557451
31 5 0     0.926341131     9.785697486     6.511882743
32 5 0     8.207257015     5.179202082     7.263465432
33 5 0     4.335434041     6.004217095     5.676820974
34 5 0     4.798163745     8.960682473     8.098527201
35 5 0     6.253264848    13.486667552     1.210853113
36 5 0     2.880332806     1.478232809    12.564495681
37 5 0     5.501156290     1.149005008     1.445034094
38 5 0     3.632441420    13.815894679    12.330314494
39 5 0     5.087542568     8.631455346     5.442640200
40 5 0     4.046055143     6.333445120     8.332708389
41 5 0    11.756144860     1.660654925     0.853658338
42 5 0    -2.622546812    13.304244763    12.921690305
43 5 0    -1.167445665     9.143105263     6.034016011
44 5 0    10.301043724     5.821795203     7.741332577
45 5 0    10.825748764     6.565400756     5.240556042
46 5 0    -1.692150684     8.399499261     8.534792959
47 5 0    -0.237049493    14.047850764     1.647118458
48 5 0     9.370647704     0.917049088    12.128229923
49 5 0     7.851904151    10.092058769     7.705971354
50 5 0     1.281693908     4.872840799     6.069377234
51 5 0    -0.173407239     2.609609210    12.957051528
52 5 0     9.307005307    12.355291256     0.818297018
53 5 0     6.516860914    10.273852719    12.781705268
54 5 0     2.616737122     4.691047298     0.993643431
55 5 0     1.161635998     2.791402710     7.881317614
56 5 0     7.971962061    12.173497306     5.894030974
57 3 0     6.579649912     7.069897465     8.099767024
58 3 0     2.553948148     7.895002118     5.675581565
59 3 0     1.098847000    14.552347908    12.563255859
60 3 0     8.034751015     0.412552349     1.212092936
61 3 0     8.461481119     8.547381999     6.846940781
62 3 0     0.672116941     6.417518018     6.928407807
63 3 0     2.127218047     1.064932215     0.040733706
64 3 0     7.006379971    13.899968026    13.734615075
65 3 0     0.720459980     3.222167432     2.500583997
66 3 0     8.413138164    11.742732809    11.274764592
67 3 0     9.868239311    10.704617216     4.387090297
68 3 0    -0.734641167     4.260282352     9.388258291
69 3 0     2.666964586     4.397061762     4.471450794
70 3 0     6.466633473    10.567838703     9.303897794
71 3 0     7.921734577    11.879511322     2.416223707
72 3 0     1.211863439     3.085388246    11.359125088
73 3 0     6.200757340     3.067714609     3.498663186
74 3 0     2.932840632    11.897184959    10.276685816
75 3 0     4.387941823    10.550165067     3.389011315
76 3 0     4.745656280     4.414735399    10.386337067
77 3 0     9.028205764     4.292517076     2.368244195
78 3 0     0.105392252    10.672382941    11.407104600
79 3 0     1.560493399    11.774967084     4.519430305
80 3 0     7.573104660     3.189933157     9.255918283
81 3 0     8.445083103    10.150407483     8.493218654
82 3 0     0.688514956     4.814492534     5.282129934
83 3 0    -0.766586191     2.667957250    12.169804228
84 3 0     9.900184227    12.296942542     1.605544470
85 3 0     7.989188182    10.924212279     7.195415582
86 3 0     1.144398038     4.040687738     6.579933007
87 3 0    -0.310703109     3.441762495    13.467607301
88 3 0     9.444289329    11.523137747     0.307741287
89 3 0     6.398768204    10.863305375    12.005657423
90 3 0     2.734829768     4.101594642     1.769691579
91 3 0     1.279728708     3.380855142     8.657365460
92 3 0     7.853869439    11.584044650     5.117982715
93 3 0     7.185825903     9.619841394    12.519160858
94 3 0     1.947772497     5.345058174     1.256187827
95 3 0     0.492671370     2.137391835     8.143862025
96 3 0     8.640927051    12.827508631     5.631486564
97 4 0    -0.013514957     3.633477679     2.680682849
98 4 0     9.147113105    11.331422338    11.094665946
99 4 0    10.602214253    11.115927688     4.206991652
100 4 0    -1.468616061     3.848972329     9.568356937
101 4 0     3.289276787     3.908832049     4.132604742
102 4 0     5.844321272    11.056067968     9.642743846
103 4 0     7.299422376    11.391282057     2.755069759
104 4 0     1.834175640     3.573618184    11.020279036
105 4 0     3.075487471     2.846323998     3.348787269
106 4 0     6.058110186    12.118576468    10.426561512
107 4 0     7.513211333    10.328773558     3.538887218
108 4 0     1.620386365     4.636126010    10.236461371
109 4 0    -0.143963419     4.561301585     3.617406608
110 4 0     9.277561213    10.403598881    10.157941980
111 4 0    10.732662361    12.043751144     3.270267686
112 4 0    -1.599064566     2.921148423    10.505080902
113 2 0     5.150604513     5.194316646     5.156113018
114 2 0     3.982993908     9.770582937     8.619235570
115 2 0     5.438095055    12.676767089     1.731561276
116 2 0     3.695503365     2.288133138    12.043787312
117 2 0    10.037691498     5.857262001     4.581680913
118 2 0    -0.904093439     9.107638450     9.193667675
119 2 0     0.551007709    13.339711576     2.305993381
120 2 0     8.582590351     1.625188112    11.469355207
121 2 0     4.452572202     1.198688491     2.137934170
122 2 0     4.681026219    13.766211525    11.637414418
123 2 0     6.136127366     8.681138500     4.749740124
124 2 0     2.997471055     6.283761517     9.025608464
125 2 0     5.280362704     3.162083389     3.589855856
126 2 0     3.853235268    11.802816419    10.185493146
127 2 0     5.308336502    10.644533606     3.297818438
128 2 0     3.825261644     4.320366844    10.477529737
129 2 0    10.750775648     2.380915533     1.012488121
130 2 0    -1.617178014    12.583984484    12.762860770
131 2 0    -0.162076783     9.863365541     5.875186076
132 2 0     9.295674565     5.101534476     7.900162112
133 2 0     9.926250997     4.221598175     2.600785910
134 2 0    -0.792653374    10.743301393    11.174563092
135 2 0     0.662447860    11.704048632     4.286888384
136 2 0     8.471149937     3.260851609     9.488459791
137 2 0     4.606452130     4.110857825     4.322704483
138 2 0     4.527145842    10.854042192     9.452644518
139 2 0     5.982247077    11.593307834     2.564969811
140 2 0     3.151351069     3.371591959    11.210378364
141 2 0    10.862219799     3.417983269     2.047016759
142 2 0    -1.728621916    11.546916973    11.728332036
143 2 0    -0.273520681    10.900433053     4.840657329
144 2 0     9.407118696     4.064466964     8.934690846
145 2 0    10.605589715     4.920459021     3.598121203
146 2 0    -1.471991475    10.044440547    10.177227385
147 2 0    -0.016890372    12.402909478     3.289553298
148 2 0     9.150488568     2.561990988    10.485795497
149 2 0     4.293688429     2.376426212     3.015423737
150 2 0     4.839909718    12.588473804    10.759924438
151 2 0     6.295010778     9.858876221     3.872250557
152 2 0     2.838587194     5.106023796     9.903098444
