# Position data file
 
128 atoms
5 atom types
 
    0.000000000    12.239000320 xlo xhi
    0.000000000    15.074000360 ylo yhi
    0.000000000    13.358706120 zlo zhi
    0.000000000    -2.809763788     0.000000000 xy xz yz
 
Masses
 
1    26.982000000
2    12.011000000
3     1.008000000
4    14.007000000
5    15.999000000
 
Atoms
 
1 1 0    -1.397884883     7.536231393     6.680451097
2 1 0    -0.006840821    -0.000844567    -0.001207625
3 1 0     1.659185065     6.735127864     5.951178807
4 1 0     7.767384130     8.337207314     7.403582302
5 1 0     9.174725641    14.272254580     0.728016693
6 1 0     0.257095978     0.799551772    12.634794250
7 1 0     4.721410619     7.535669337     6.680313286
8 1 0     6.113088579    -0.001569993    -0.000864000
9 5 0     0.338869693     7.268894435     7.026875611
10 5 0     9.084239813     7.804728498     6.327408107
11 5 0     7.685492864    14.805519740    13.010811460
12 5 0     1.749635019     0.267827188     0.352080093
13 5 0     2.937128430     7.838789329     6.530906027
14 5 0     6.483427326     7.238627640     6.824527283
15 5 0     7.897350540     0.301857980     0.148131434
16 5 0     1.541169152    14.774821910    13.213886350
17 5 0     7.985220594    13.431517270     1.918164923
18 5 0     1.442303431     1.639023681    11.440105060
19 5 0     2.848803483     5.894620998     4.761296076
20 5 0     6.581805419     9.176347969     8.597750717
21 5 0    10.270283050    12.891556020     1.457865139
22 5 0    -0.843346907     2.184834429    11.897766170
23 5 0     0.563863065     5.353564907     5.221659152
24 5 0     8.867462117     9.721797107     8.139985156
25 5 0     1.192448235     7.893959604     4.619034200
26 5 0     8.232157612     7.174380492     8.732344138
27 5 0     9.641323741     0.357240269     2.059944611
28 5 0    -0.207624106    14.710829640    11.306133580
29 5 0     0.203989603    13.378238820     0.791191372
30 5 0     9.223671307     1.695611766    12.566724410
31 5 0    10.630069350     5.841301204     5.887747382
32 5 0    -1.199446217     9.232467553     7.471483448
33 5 0    -1.046520954     8.368038057     5.021497952
34 5 0    10.475048730     6.707914400     8.338405181
35 5 0    11.880543950     0.830618737     1.657999242
36 5 0    -2.450694251    14.245436020    11.699487900
37 5 0     7.287571705     9.584480181     6.018198274
38 5 0     2.138850897     5.492289870     7.342582819
39 5 0     3.546821588     2.047425709     0.661044497
40 5 0     5.885452692    13.028774430    12.695888340
41 5 0     4.983188985     9.345500722     6.167884307
42 5 0     4.443987126     5.727962545     7.191756494
43 5 0     5.851157290     1.808406044     0.511272177
44 5 0     3.580703658    13.264970370    12.846766420
45 5 0     5.937917114    14.517276580     1.766707342
46 5 0     3.490907243     0.555843478    11.592138580
47 5 0     4.896470743     6.980249680     4.912535247
48 5 0     4.533606626     8.092714956     8.445981369
49 5 0     1.127175952    11.116415210     1.990074189
50 5 0     8.298746727     3.958201587    11.366924810
51 5 0     9.706841846     3.579189530     4.689354033
52 5 0    -0.274909744    11.495189380     8.671033408
53 5 0     4.897162933    12.736707040     3.644044063
54 5 0     4.529917318     2.338346740     9.715047558
55 5 0     5.936947209     5.199788680     3.035607856
56 5 0     3.494341919     9.875133718    10.322825880
57 3 0     0.355365438     6.663750650     7.809728070
58 3 0     9.075468750     8.417604575     5.549947782
59 3 0     7.668743707    14.200704080    12.227649130
60 3 0     1.758993199     0.880861692     1.129390962
61 3 0     2.665304632     8.205088108     7.409280787
62 3 0     6.758310793     6.861694224     5.952179913
63 3 0     5.359518643     0.668324124    12.628595470
64 3 0     4.076448785    14.398285760     0.727891779
65 3 0    10.407355300    10.618777740     3.344440338
66 3 0    -0.980380534     4.454948543    10.014542680
67 3 0     0.426620839     3.081367451     3.334669905
68 3 0     9.004363852    11.992170850    10.023687520
69 3 0     7.919218685    11.482627090     4.009883782
70 3 0     1.507169292     3.591128723     9.351179675
71 3 0     2.915001807     3.945925364     2.669540348
72 3 0     6.517194541    11.127642990    10.686603170
73 3 0     2.348978547     9.622888604     2.775403897
74 3 0     7.077673713     5.451458665    10.579592490
75 3 0     8.485011159     2.085811334     3.903859388
76 3 0     0.946346124    12.988251920     9.458296831
77 3 0     3.680816291    11.606149600     4.906101857
78 3 0     5.745222502     3.469487337     8.453016353
79 3 0     7.153435753     4.069490343     1.773455261
80 3 0     2.279033646    11.006196540    11.585014170
81 2 0    11.550275010    12.651712680     1.415372221
82 2 0    -2.123202352     2.422973813    11.942215160
83 2 0    -0.716273698     5.114322979     5.263994619
84 2 0    10.147340920     9.959912526     8.095734274
85 2 0     0.097723304     8.584422320     4.425520750
86 2 0     9.329176438     6.488557868     8.930203443
87 2 0    10.736190900     1.047422679     2.253609561
88 2 0    -1.304826476    14.025383550    11.108040940
89 2 0     6.749276296    13.621232610     2.280064057
90 2 0     2.679013478     1.451679581    11.079047050
91 2 0     4.084829171     6.084258791     4.399490966
92 2 0     5.345277282     8.988678557     8.959127949
93 2 0     6.061872228     9.939658010     5.726467187
94 2 0     3.364224420     5.135766810     7.633819781
95 2 0     4.772545189     2.402694570     0.952723597
96 2 0     4.660122273    12.672328560    12.404530560
97 2 0    11.434353940    10.598767190     3.019347326
98 2 0    -2.007703813     4.475336647    10.338622690
99 2 0    -0.600382457     3.061663498     3.659822872
100 2 0    10.031653630    12.012389330     9.699443132
101 2 0     6.262667464    12.730515410     3.324471763
102 2 0     3.164667890     2.343809652    10.035400260
103 2 0     4.571430625     5.193445812     3.355100894
104 2 0     4.859564755     9.880757257    10.002652860
105 2 0    -0.220511742    11.472047550     2.139286111
106 2 0     9.646489127     3.602539748    11.218631310
107 2 0    11.054497490     3.934737410     4.540110592
108 2 0    -1.622628281    11.139569870     8.819370916
109 2 0     0.197497999     9.664828387     3.438891763
110 2 0     9.229394076     5.408933238     9.917660729
111 2 0    10.636395170     2.127912638     3.240148539
112 2 0    -1.205336160    12.945858260    10.120456580
113 2 0     6.873134542    11.737928990     4.044548585
114 2 0     2.553406860     3.336561444     9.316094405
115 2 0     3.961122779     4.200969353     2.634738872
116 2 0     5.470856681    10.873424600    10.721996350
117 2 0     1.349313216    10.026602220     2.779052897
118 2 0     8.077181201     5.047450172    10.576962730
119 2 0     9.484638128     2.489590211     3.900128885
120 2 0    -0.053189416    12.584351050     9.461017883
121 2 0     5.873151103    11.090453050     4.835702085
122 2 0     3.552733459     3.984947956     8.524781638
123 2 0     4.961180510     3.553601036     1.843484512
124 2 0     4.471452626    11.521647420    11.513391080
125 2 0     4.690932606    11.733007440     4.551275152
126 2 0     4.735270469     3.342533284     8.808303566
127 2 0     6.143291999     4.196245717     2.128211555
128 2 0     3.288939312    10.879199980    11.229678270
